#INFO: **** input file is /projects/ilsa8974/experiments/VMCr/papers/jpghf_realspace/benzene/cc/pp/dz/C/C.py ****
import json
import numpy as np
from pyscf import lib, gto, scf, ao2mo, tools, fci, mcscf, cc
from pyscf.shciscf import shci, settings

atomstring = ""
atomstring += f"C 0 0 0;"

mol = gto.M(
atom = atomstring,
unit = "bohr",
cart = False,
spin = 2,
basis = {
'C':gto.basis.parse(
'''
C s
13.073594 0.0051583
6.541187 0.0603424
4.573411 -0.1978471
1.637494 -0.0810340
0.819297 0.2321726
0.409924 0.2914643
0.231300 0.4336405
0.102619 0.2131940
0.051344 0.0049848
C s
0.921552 1.000000
C s
0.132800 1.000000
C p
9.934169 0.0209076
3.886955 0.0572698
1.871016 0.1122682
0.935757 0.2130082
0.468003 0.2835815
0.239473 0.3011207
0.117063 0.2016934
0.058547 0.0453575
0.029281 0.0029775
C p
0.376742 1.000000
C p
0.126772 1.000000
C d
1.141611 1.000000
C d
0.329486 1.000000
C f
0.773485 1.000000
'''
)
},
ecp = {
'C':gto.basis.parse_ecp(
'''
C nelec 2
C ul
1 14.43502 4.00000
3 8.39889 57.74008
2 7.38188 -25.81955
C S
2 7.76079 52.13345
'''
)
},
verbose = 5
)
mf = scf.UHF(mol).newton()
norbs = mol.nao

dm = mf.get_init_guess()

dm = dm + (2.0 * np.random.rand(norbs, norbs) - 1.0) / 1000
mf.max_cycle = 100
mf.kernel(dm0 = dm)
mf.analyze()

mycc = mf.CCSD()
mycc.run()
et = mycc.ccsd_t()
print("\n")
print('CCSD correlation energy: ', mycc.e_corr)
print('CCSD total energy: ', mf.energy_tot() + mycc.e_corr)
print("\n")
print('CCSD(T) correlation energy: ', mycc.e_corr + et)
print('CCSD(T) total energy: ', mf.energy_tot() + mycc.e_corr + et)
#INFO: ******************** input file end ********************


System: uname_result(system='Linux', node='bnode0303.rc.int.colorado.edu', release='3.10.0-693.37.4.el7.x86_64', version='#1 SMP Fri Aug 10 12:34:55 EDT 2018', machine='x86_64', processor='x86_64')  Threads 1
Python 3.7.3 (default, Mar 27 2019, 22:11:17) 
[GCC 7.3.0]
numpy 1.16.4  scipy 1.3.0
Date: Wed Jun  9 13:51:20 2021
PySCF version 1.7.5
PySCF path  /projects/ilsa8974/apps/pyscf/pyscf
GIT HEAD      ref: refs/heads/master
GIT master branch  7a57d2f37184ea4cd3b52a590c945197b084f66d

[CONFIG] conf_file None
[INPUT] verbose = 5
[INPUT] max_memory = 4000 
[INPUT] num. atoms = 1
[INPUT] num. electrons = 4
[INPUT] charge = 0
[INPUT] spin (= nelec alpha-beta = 2S) = 2
[INPUT] symmetry False subgroup None
[INPUT] Mole.unit = bohr
[INPUT]  1 C      0.000000000000   0.000000000000   0.000000000000 AA    0.000000000000   0.000000000000   0.000000000000 Bohr
[INPUT] ---------------- BASIS SET ---------------- 
[INPUT] l, kappa, [nprim/nctr], expnt,             c_1 c_2 ...
[INPUT] C
[INPUT] 0    0    [9    /1   ]  13.073594         0.0051583
                                6.541187          0.0603424
                                4.573411          -0.1978471
                                1.637494          -0.081034
                                0.819297          0.2321726
                                0.409924          0.2914643
                                0.2313            0.4336405
                                0.102619          0.213194
                                0.051344          0.0049848
[INPUT] 0    0    [1    /1   ]  0.921552             1
[INPUT] 0    0    [1    /1   ]  0.1328               1
[INPUT] 1    0    [9    /1   ]  9.934169          0.0209076
                                3.886955          0.0572698
                                1.871016          0.1122682
                                0.935757          0.2130082
                                0.468003          0.2835815
                                0.239473          0.3011207
                                0.117063          0.2016934
                                0.058547          0.0453575
                                0.029281          0.0029775
[INPUT] 1    0    [1    /1   ]  0.376742             1
[INPUT] 1    0    [1    /1   ]  0.126772             1
[INPUT] 2    0    [1    /1   ]  1.141611             1
[INPUT] 2    0    [1    /1   ]  0.329486             1
[INPUT] 3    0    [1    /1   ]  0.773485             1

nuclear repulsion = 0
number of shells = 9
number of NR pGTOs = 61
number of NR cGTOs = 29
basis = {'C': [[0, [13.073594, 0.0051583], [6.541187, 0.0603424], [4.573411, -0.1978471], [1.637494, -0.081034], [0.819297, 0.2321726], [0.409924, 0.2914643], [0.2313, 0.4336405], [0.102619, 0.213194], [0.051344, 0.0049848]], [0, [0.921552, 1.0]], [0, [0.1328, 1.0]], [1, [9.934169, 0.0209076], [3.886955, 0.0572698], [1.871016, 0.1122682], [0.935757, 0.2130082], [0.468003, 0.2835815], [0.239473, 0.3011207], [0.117063, 0.2016934], [0.058547, 0.0453575], [0.029281, 0.0029775]], [1, [0.376742, 1.0]], [1, [0.126772, 1.0]], [2, [1.141611, 1.0]], [2, [0.329486, 1.0]], [3, [0.773485, 1.0]]]}
ecp = {'C': [2, [[-1, [[], [[14.43502, 4.0]], [[7.38188, -25.81955]], [[8.39889, 57.74008]], [], [], []]], [0, [[], [], [[7.76079, 52.13345]], [], [], [], []]]]]}
CPU time:         0.40




******** <class 'pyscf.scf.uhf.UHF'> ********
method = UHF
initial guess = minao
damping factor = 0
level_shift factor = 0
DIIS = <class 'pyscf.scf.diis.CDIIS'>
diis_start_cycle = 1
diis_space = 8
SCF conv_tol = 1e-09
SCF conv_tol_grad = None
SCF max_cycles = 50
direct_scf = True
direct_scf_tol = 1e-13
chkfile to save SCF result = /rc_scratch/ilsa8974/tmp46e3vbj0
max_memory 4000 MB (current use 66 MB)
number electrons alpha = 3  beta = 1
******** <class 'pyscf.scf.uhf.UHF'> Newton solver flags ********
SCF tol = 1e-09
conv_tol_grad = None
max. SCF cycles = 100
direct_scf = True
direct_scf_tol = 1e-13
chkfile to save SCF result = /rc_scratch/ilsa8974/tmp46e3vbj0
max_cycle_inner = 12
max_stepsize = 0.05
ah_start_tol = 1e+09
ah_level_shift = 0
ah_conv_tol = 1e-12
ah_lindep = 1e-14
ah_start_cycle = 1
ah_max_cycle = 40
ah_grad_trust_region = 2.5
kf_interval = 4
kf_trust_region = 5
canonicalization = True
max_memory 4000 MB (current use 66 MB)
Set conv_tol_grad to 3.16228e-05
  alpha nocc = 3  HOMO = -0.0752579530277269  LUMO = -0.0740362880939511
  beta  nocc = 1  HOMO = -0.708121540305481  LUMO = -0.0761100693799546

WARN: system HOMO -0.0752579530277269 >= system LUMO -0.0761100693799546

  alpha mo_energy =
[-0.70812154 -0.07611007 -0.07525795 -0.07403629  0.49692007  0.49851912
  0.49934218  0.64342146  0.8961195   0.89647654  0.8971144   0.89751223
  0.89810283  2.22444259  2.23709662  2.24342107  3.01254982  3.01311185
  3.01325881  3.01403042  3.01425345  3.01460196  3.01541512  3.39565383
  3.39661925  3.39696711  3.39756573  3.39857636  9.47668709]
  beta  mo_energy =
[-0.70812154 -0.07611007 -0.07525795 -0.07403629  0.49692007  0.49851912
  0.49934218  0.64342146  0.8961195   0.89647654  0.8971144   0.89751223
  0.89810283  2.22444259  2.23709662  2.24342107  3.01254982  3.01311185
  3.01325881  3.01403042  3.01425345  3.01460196  3.01541512  3.39565383
  3.39661925  3.39696711  3.39756573  3.39857636  9.47668709]
multiplicity <S^2> = 2  2S+1 = 3
E1 = -8.085217843250359  Ecoul = 2.8043872873739013
Initial guess E= -5.28083055587646  |g|= 0.177527
    CPU time for initializing second order scf      0.04 sec, wall time      0.11 sec
    |g|= 0.178 (keyframe)
    imic 1(1)  |g|= 0.132  |dxi|= 0.0864  max(|x|)= 0.0841  |dr|= 0.0864  eig= -0.0258  seig= 0.0315
    imic 2(2)  |g|= 0.0657  |dxi|= 0.0731  max(|x|)= 0.105  |dr|= 0.153  eig= -0.0165  seig= 0.00378
    imic 3(3)  |g|= 0.0147  |dxi|= 0.0775  max(|x|)= 0.0622  |dr|= 0.225  eig= -0.00542  seig= 0.00022
E1 = -8.331670703761448  Ecoul = 3.0122998578478604
Adjust keyframe g_orb to |g|= 0.0142  |g-correction|=0.00579  E=-5.31937084591 dE=-0.03854
    imic 4(4)  |g|= 0.00609  |dxi|= 0.0162  max(|x|)= 0.0103  |dr|= 0.0162  eig= -0.000167  seig= 3.89e-06
    imic 5(5)  |g|= 0.000597  |dxi|= 0.00302  max(|x|)= 0.0023  |dr|= 0.0168  eig= -1.4e-05  seig= 2.87e-06
    imic 6(6)  |g|= 3.23e-05  |dxi|= 0.000313  max(|x|)= 0.000109  |dr|= 0.0168  eig= -1.32e-07  seig= 3.42e-08
E1 = -8.34193715745374  Ecoul = 3.0223823458493175
Adjust keyframe g_orb to |g|= 0.000686  |g-correction|=0.00068  E=-5.3195548116 dE=-0.00018397
Out of trust region. Restore previouse step
    tot inner=6  9 JK  |g|= 0.000597  |u-1|= 0.000313
    CPU time for aug_hess in 6 inner iters      0.02 sec, wall time      0.02 sec
  alpha nocc = 3  HOMO = -0.440617607319214  LUMO = 0.0338680338912232
  beta  nocc = 1  HOMO = -0.580206067309734  LUMO = 0.0677674052110729
  alpha mo_energy =
[-0.83556427 -0.44062486 -0.44061761  0.03386803  0.44251595  0.4425191
  0.50642102  0.60765123  0.84492579  0.84492587  0.86443233  0.86443258
  0.8727992   2.18238249  2.18238551  2.21977752  2.97739834  2.97930813
  2.97930822  2.98499249  2.98499251  2.99428013  2.99428013  3.34464208
  3.34464214  3.35301926  3.35302048  3.35616085  9.44577394]
  beta  mo_energy =
[-0.58020607  0.06776741  0.12207877  0.12207977  0.53356911  0.58153352
  0.58153462  0.68632559  0.91630573  0.92700569  0.92700595  0.96356878
  0.96356879  2.24581972  2.30124628  2.30124775  3.01796574  3.02526061
  3.02526143  3.0473971   3.04739712  3.08544372  3.08544372  3.41655851
  3.43302695  3.43302847  3.48559969  3.48559972  9.51242986]
multiplicity <S^2> = 2.0096523  2S+1 = 3.0064279
E1 = -8.342096844314774  Ecoul = 3.0225421379951873
macro= 0  E= -5.31955470631959  delta_E= -0.0387242  |g|= 0.0142161  3 KF 9 JK
    CPU time for cycle= 1      0.02 sec, wall time      0.02 sec
    |g|= 0.000642 (keyframe), |g-correction|= 0.000676
    imic 1(1)  |g|= 0.000657  |dxi|= 0.000282  max(|x|)= 9.81e-05  |dr|= 0.000282  eig= -1.07e-07  seig= 9.8e-08
    imic 2(2)  |g|= 7.24e-05  |dxi|= 0.000411  max(|x|)= 0.000345  |dr|= 0.00055  eig= -2.21e-07  seig= 8.51e-08
    imic 3(3)  |g|= 1.09e-05  |dxi|= 4.04e-05  max(|x|)= 2.9e-05  |dr|= 0.000555  eig= -2.11e-09  seig= 1.11e-09
    tot inner=3  4 JK  |g|= 1.09e-05  |u-1|= 0.000555
    CPU time for aug_hess in 3 inner iters      0.01 sec, wall time      0.04 sec
  alpha nocc = 3  HOMO = -0.440594687736484  LUMO = 0.0339237340344678
  beta  nocc = 1  HOMO = -0.580144416416351  LUMO = 0.0677631724238869
  alpha mo_energy =
[-0.8356226  -0.4405955  -0.44059469  0.03392373  0.44252954  0.44252992
  0.50643283  0.60762158  0.84493469  0.84493469  0.86446801  0.86446807
  0.87284142  2.18243083  2.18243121  2.21982142  2.9774453   2.97935232
  2.97935233  2.98502745  2.98502745  2.9942974   2.9942974   3.34466968
  3.34466968  3.35305998  3.35306012  3.35620269  9.44580496]
  beta  mo_energy =
[-0.58014442  0.06776317  0.12211716  0.12211721  0.53359924  0.58157276
  0.58157286  0.68636555  0.91631887  0.92702141  0.92702142  0.96359552
  0.96359552  2.24586116  2.30128779  2.30128795  3.01800683  3.02530202
  3.02530209  3.04743831  3.04743831  3.08548666  3.08548666  3.41662049
  3.43308779  3.43308795  3.4856574   3.4856574   9.51247377]
multiplicity <S^2> = 2.0096924  2S+1 = 3.0064547
E1 = -8.342152868845456  Ecoul = 3.0225978330174685
macro= 1  E= -5.31955503582799  delta_E= -3.29508e-07  |g|= 0.000641923  1 KF 4 JK
    CPU time for cycle= 2      0.01 sec, wall time      0.04 sec
    |g|= 1.09e-05 (keyframe), |g-correction|= 3.55e-08
    imic 1(1)  |g|= 1.09e-05  |dxi|= 1.37e-08  max(|x|)= 9.85e-09  |dr|= 1.37e-08  eig= -2.44e-16  seig= 1.63e-09
    tot inner=1  2 JK  |g|= 1.09e-05  |u-1|= 1.37e-08
    CPU time for aug_hess in 1 inner iters      0.01 sec, wall time      0.04 sec
  alpha nocc = 3  HOMO = -0.440594684728314  LUMO = 0.033923737678306
  beta  nocc = 1  HOMO = -0.580144414489694  LUMO = 0.0677631746906759
  alpha mo_energy =
[-0.8356226  -0.44059549 -0.44059468  0.03392374  0.44252954  0.44252992
  0.50643283  0.60762158  0.84493469  0.8449347   0.86446801  0.86446807
  0.87284142  2.18243084  2.18243122  2.21982143  2.9774453   2.97935232
  2.97935233  2.98502746  2.98502746  2.9942974   2.9942974   3.34466968
  3.34466968  3.35305998  3.35306013  3.35620269  9.44580497]
  beta  mo_energy =
[-0.58014441  0.06776317  0.12211717  0.12211721  0.53359924  0.58157276
  0.58157286  0.68636555  0.91631887  0.92702141  0.92702142  0.96359552
  0.96359552  2.24586117  2.3012878   2.30128796  3.01800683  3.02530202
  3.02530209  3.04743832  3.04743832  3.08548666  3.08548666  3.41662049
  3.4330878   3.43308796  3.4856574   3.4856574   9.51247377]
multiplicity <S^2> = 2.0096924  2S+1 = 3.0064547
E1 = -8.342152881121613  Ecoul = 3.022597845293627
macro= 2  E= -5.31955503582799  delta_E= 8.88178e-16  |g|= 1.08617e-05  1 KF 2 JK
    CPU time for cycle= 3      0.01 sec, wall time      0.04 sec
Canonicalize SCF orbitals
macro X = 3  E=-5.31955503582799  |g|= 1.08617e-05  total 6 KF 19 JK
    CPU time for Second order SCF      0.09 sec, wall time      0.25 sec
converged SCF energy = -5.31955503582799  <S^2> = 2.0096922  2S+1 = 3.0064545
**** SCF Summaries ****
Total Energy =                          -5.319555035827987
Nuclear Repulsion Energy =               0.000000000000000
One-electron Energy =                   -8.342152881121613
Two-electron Energy =                    3.022597845293627
**** MO energy ****
                             alpha | beta                alpha | beta
MO #1   energy= -0.835622596906889 | -0.580144414475814 occ= 1 | 1
MO #2   energy= -0.440595494444239 | 0.0677631746905645 occ= 1 | 0
MO #3   energy= -0.440594684707416 | 0.122117166477508  occ= 1 | 0
MO #4   energy= 0.0339237376782482 | 0.122117213422088  occ= 0 | 0
MO #5   energy= 0.44252953639466   | 0.533599238343933  occ= 0 | 0
MO #6   energy= 0.442529922155273  | 0.581572762992257  occ= 0 | 0
MO #7   energy= 0.506432828885018  | 0.581572863077638  occ= 0 | 0
MO #8   energy= 0.607621581264228  | 0.686365546671921  occ= 0 | 0
MO #9   energy= 0.844934694632578  | 0.916318868773767  occ= 0 | 0
MO #10  energy= 0.844934695053066  | 0.927021412185651  occ= 0 | 0
MO #11  energy= 0.864468012644851  | 0.927021421876438  occ= 0 | 0
MO #12  energy= 0.864468071238818  | 0.963595523103166  occ= 0 | 0
MO #13  energy= 0.87284141764364   | 0.963595523206178  occ= 0 | 0
MO #14  energy= 2.1824308383262    | 2.24586116738743   occ= 0 | 0
MO #15  energy= 2.18243121846062   | 2.30128779662528   occ= 0 | 0
MO #16  energy= 2.21982142577084   | 2.30128795559723   occ= 0 | 0
MO #17  energy= 2.97744530066415   | 3.01800682974922   occ= 0 | 0
MO #18  energy= 2.97935232239823   | 3.02530202386913   occ= 0 | 0
MO #19  energy= 2.97935232900308   | 3.02530209066448   occ= 0 | 0
MO #20  energy= 2.98502745610171   | 3.04743831657721   occ= 0 | 0
MO #21  energy= 2.98502745622585   | 3.04743831667578   occ= 0 | 0
MO #22  energy= 2.99429739947057   | 3.08548666082579   occ= 0 | 0
MO #23  energy= 2.99429739947057   | 3.08548666082579   occ= 0 | 0
MO #24  energy= 3.34466968227381   | 3.41662049430999   occ= 0 | 0
MO #25  energy= 3.34466968257362   | 3.4330877959697    occ= 0 | 0
MO #26  energy= 3.35305998436371   | 3.43308795899053   occ= 0 | 0
MO #27  energy= 3.35306012733233   | 3.4856574031972    occ= 0 | 0
MO #28  energy= 3.35620269445648   | 3.48565740332433   occ= 0 | 0
MO #29  energy= 9.44580496747959   | 9.51247377306432   occ= 0 | 0
 ** MO coefficients (expansion on meta-Lowdin AOs) for alpha spin **
               #1        #2        #3        #4        #5       
  0 C 2s       0.99882   0.00000  -0.00000   0.00000   0.00000
  0 C 3s       0.01675  -0.00000   0.00000  -0.00000  -0.00000
  0 C 4s      -0.02237   0.00000  -0.00000   0.00000   0.00000
  0 C 2px     -0.00000   0.49333  -0.16945   0.82866  -0.00339
  0 C 2py     -0.00000   0.57330   0.80097  -0.16747  -0.00393
  0 C 2pz     -0.00000   0.65414  -0.57418  -0.47817  -0.00449
  0 C 3px     -0.00000   0.00030  -0.00010  -0.02773   0.11618
  0 C 3py     -0.00000   0.00035   0.00049   0.00560   0.13479
  0 C 3pz     -0.00000   0.00040  -0.00035   0.01600   0.15413
  0 C 4px      0.00000  -0.00341   0.00117   0.20113  -0.47961
  0 C 4py      0.00000  -0.00397  -0.00554  -0.04065  -0.55647
  0 C 4pz      0.00000  -0.00452   0.00397  -0.11606  -0.63627
  0 C 3dxy     0.00549  -0.00000  -0.00000  -0.00000  -0.00000
  0 C 3dyz    -0.00317  -0.00000  -0.00000   0.00000  -0.00000
  0 C 3dz^2    0.00294   0.00000   0.00000   0.00000   0.00000
  0 C 3dxz     0.01568  -0.00000   0.00000   0.00000  -0.00000
 0 C 3dx2-y2  -0.01303  -0.00000   0.00000  -0.00000  -0.00000
  0 C 4dxy     0.00847  -0.00000  -0.00000  -0.00000  -0.00000
  0 C 4dyz    -0.00489  -0.00000  -0.00000   0.00000  -0.00000
  0 C 4dz^2    0.00454   0.00000   0.00000   0.00000   0.00000
  0 C 4dxz     0.02418  -0.00000   0.00000   0.00000  -0.00000
 0 C 4dx2-y2  -0.02010  -0.00000   0.00000  -0.00000  -0.00000
  0 C 4fy^3    0.00000  -0.00033  -0.00078   0.00044   0.00007
  0 C 4fxyz   -0.00000   0.00061   0.00055  -0.00042  -0.00013
  0 C 4fyz^2   0.00000  -0.00022   0.00010   0.00003   0.00005
  0 C 4fz^3    0.00000  -0.00011   0.00010  -0.00066   0.00002
  0 C 4fxz^2  -0.00000   0.00087  -0.00078  -0.00017  -0.00018
  0 C 4fzx^2  -0.00000   0.00006   0.00041   0.00100  -0.00001
  0 C 4fx^3    0.00000  -0.00065  -0.00015  -0.00065   0.00013
               #6        #7        #8        #9        #10      
  0 C 2s       0.00000   0.00000   0.02940   0.00000   0.00000
  0 C 3s      -0.00000  -0.00000  -0.57588  -0.00000   0.00000
  0 C 4s       0.00000   0.00000   0.81611   0.00000  -0.00000
  0 C 2px     -0.00116   0.20132  -0.00000   0.00000   0.00000
  0 C 2py      0.00550  -0.04069  -0.00000   0.00000  -0.00000
  0 C 2pz     -0.00394  -0.11617   0.00000   0.00000   0.00000
  0 C 3px      0.03979   0.22183  -0.00000  -0.00000  -0.00000
  0 C 3py     -0.18869  -0.04483  -0.00000  -0.00000   0.00000
  0 C 3pz      0.13503  -0.12801  -0.00000  -0.00000  -0.00000
  0 C 4px     -0.16425  -0.79885   0.00001  -0.00000  -0.00000
  0 C 4py      0.77897   0.16144   0.00000  -0.00000   0.00000
  0 C 4pz     -0.55746   0.46097   0.00000  -0.00000  -0.00000
  0 C 3dxy     0.00000  -0.00000  -0.00307   0.10701  -0.08248
  0 C 3dyz     0.00000   0.00000   0.00177   0.21745  -0.05951
  0 C 3dz^2   -0.00000   0.00000  -0.00165   0.02884   0.17010
  0 C 3dxz    -0.00000   0.00000  -0.00877   0.06316   0.10131
 0 C 3dx2-y2  -0.00000  -0.00000   0.00729   0.07473   0.14000
  0 C 4dxy     0.00000  -0.00000  -0.00920   0.39264  -0.30264
  0 C 4dyz     0.00000   0.00000   0.00531   0.79787  -0.21836
  0 C 4dz^2   -0.00000   0.00000  -0.00493   0.10583   0.62413
  0 C 4dxz    -0.00000   0.00000  -0.02627   0.23176   0.37173
 0 C 4dx2-y2  -0.00000  -0.00000   0.02183   0.27419   0.51368
  0 C 4fy^3   -0.00016  -0.00002  -0.00000  -0.00000   0.00000
  0 C 4fxyz    0.00011   0.00002   0.00000  -0.00000   0.00000
  0 C 4fyz^2   0.00002  -0.00000  -0.00000  -0.00000  -0.00000
  0 C 4fz^3    0.00002   0.00002  -0.00000   0.00000  -0.00000
  0 C 4fxz^2  -0.00016   0.00001   0.00000  -0.00000  -0.00000
  0 C 4fzx^2   0.00008  -0.00004   0.00000  -0.00000  -0.00000
  0 C 4fx^3   -0.00003   0.00002  -0.00000  -0.00000  -0.00000
               #11       #12       #13       #14       #15      
  0 C 2s       0.00000   0.00000   0.03648   0.00000   0.00000
  0 C 3s       0.00000   0.00000   0.02228   0.00000   0.00000
  0 C 4s      -0.00000  -0.00000  -0.03206  -0.00000  -0.00000
  0 C 2px      0.00000  -0.00000   0.00000  -0.00052  -0.00017
  0 C 2py     -0.00000  -0.00000  -0.00000  -0.00059   0.00084
  0 C 2pz      0.00000  -0.00000  -0.00000  -0.00069  -0.00059
  0 C 3px     -0.00000   0.00000   0.00000  -0.48042  -0.16187
  0 C 3py      0.00000   0.00000   0.00000  -0.55260   0.78172
  0 C 3pz     -0.00000  -0.00000   0.00000  -0.63903  -0.55430
  0 C 4px     -0.00000   0.00000  -0.00000  -0.11637  -0.03921
  0 C 4py      0.00000   0.00000   0.00000  -0.13385   0.18935
  0 C 4pz     -0.00000   0.00000   0.00000  -0.15479  -0.13427
  0 C 3dxy    -0.18255  -0.10017  -0.06375  -0.00000   0.00000
  0 C 3dyz     0.07646   0.09935   0.03678  -0.00000   0.00000
  0 C 3dz^2   -0.12246   0.14351  -0.03414  -0.00000  -0.00000
  0 C 3dxz     0.10219  -0.08156  -0.18202  -0.00000  -0.00000
 0 C 3dx2-y2  -0.00020  -0.13212   0.15127  -0.00000  -0.00000
  0 C 4dxy    -0.69459  -0.38113  -0.24632  -0.00000   0.00000
  0 C 4dyz     0.29094   0.37804   0.14213  -0.00000   0.00000
  0 C 4dz^2   -0.46596   0.54605  -0.13190   0.00000  -0.00000
  0 C 4dxz     0.38881  -0.31034  -0.70330  -0.00000  -0.00000
 0 C 4dx2-y2  -0.00077  -0.50272   0.58451  -0.00000  -0.00000
  0 C 4fy^3    0.00000   0.00000   0.00000  -0.00158   0.00384
  0 C 4fxyz   -0.00000  -0.00000   0.00000   0.00301  -0.00275
  0 C 4fyz^2  -0.00000  -0.00000  -0.00000  -0.00110  -0.00051
  0 C 4fz^3    0.00000  -0.00000  -0.00000  -0.00055  -0.00048
  0 C 4fxz^2   0.00000  -0.00000   0.00000   0.00431   0.00383
  0 C 4fzx^2  -0.00000   0.00000   0.00000   0.00027  -0.00203
  0 C 4fx^3   -0.00000   0.00000  -0.00000  -0.00322   0.00076
               #16       #17       #18       #19       #20      
  0 C 2s      -0.00000   0.00000  -0.00000  -0.00000  -0.00000
  0 C 3s      -0.00000   0.00000   0.00000  -0.00000  -0.00000
  0 C 4s       0.00000  -0.00000  -0.00000   0.00000   0.00000
  0 C 2px     -0.02632  -0.00146  -0.00017   0.00066   0.00000
  0 C 2py      0.00532   0.00029   0.00110   0.00067   0.00000
  0 C 2pz      0.01519   0.00084  -0.00069   0.00091  -0.00000
  0 C 3px      0.82333   0.00707   0.00084  -0.00321  -0.00000
  0 C 3py     -0.16639  -0.00143  -0.00536  -0.00326   0.00000
  0 C 3pz     -0.47509  -0.00408   0.00334  -0.00443   0.00000
  0 C 4px      0.22200   0.00154   0.00017  -0.00064  -0.00000
  0 C 4py     -0.04487  -0.00031  -0.00107  -0.00065   0.00000
  0 C 4pz     -0.12810  -0.00089   0.00067  -0.00089   0.00000
  0 C 3dxy     0.00000  -0.00000  -0.00000   0.00000   0.00000
  0 C 3dyz    -0.00000   0.00000   0.00000   0.00000   0.00000
  0 C 3dz^2   -0.00000   0.00000  -0.00000   0.00000  -0.00000
  0 C 3dxz    -0.00000  -0.00000   0.00000   0.00000   0.00000
 0 C 3dx2-y2   0.00000  -0.00000  -0.00000  -0.00000   0.00000
  0 C 4dxy     0.00000   0.00000   0.00000  -0.00000  -0.00000
  0 C 4dyz    -0.00000  -0.00000  -0.00000  -0.00000  -0.00000
  0 C 4dz^2   -0.00000  -0.00000   0.00000  -0.00000   0.00000
  0 C 4dxz    -0.00000   0.00000  -0.00000  -0.00000  -0.00000
 0 C 4dx2-y2   0.00000   0.00000   0.00000   0.00000  -0.00000
  0 C 4fy^3   -0.00250   0.29360   0.60645   0.20251  -0.36523
  0 C 4fxyz    0.00239  -0.28048  -0.45465  -0.43409  -0.46378
  0 C 4fyz^2  -0.00019   0.02237  -0.06663   0.17462   0.66099
  0 C 4fz^3    0.00375  -0.44015  -0.06798   0.09017   0.12075
  0 C 4fxz^2   0.00094  -0.11068   0.54321  -0.70308   0.10156
  0 C 4fzx^2  -0.00567   0.66558  -0.31426  -0.02022  -0.20762
  0 C 4fx^3    0.00367  -0.43079   0.15023   0.48699  -0.38289
               #21       #22       #23       #24       #25      
  0 C 2s       0.00000  -0.00000   0.00000  -0.00000   0.00000
  0 C 3s       0.00000  -0.00000   0.00000  -0.00000   0.00000
  0 C 4s      -0.00000   0.00000  -0.00000   0.00000  -0.00000
  0 C 2px      0.00000  -0.00000   0.00000   0.00000   0.00000
  0 C 2py      0.00000  -0.00000   0.00000   0.00000  -0.00000
  0 C 2pz     -0.00000   0.00000   0.00000   0.00000   0.00000
  0 C 3px      0.00000   0.00000  -0.00000  -0.00000  -0.00000
  0 C 3py     -0.00000   0.00000  -0.00000  -0.00000   0.00000
  0 C 3pz     -0.00000  -0.00000  -0.00000  -0.00000  -0.00000
  0 C 4px     -0.00000   0.00000  -0.00000  -0.00000  -0.00000
  0 C 4py     -0.00000   0.00000  -0.00000  -0.00000   0.00000
  0 C 4pz      0.00000  -0.00000  -0.00000  -0.00000  -0.00000
  0 C 3dxy     0.00000  -0.00000   0.00000   0.39266  -0.30262
  0 C 3dyz    -0.00000  -0.00000   0.00000   0.79788  -0.21831
  0 C 3dz^2    0.00000   0.00000   0.00000   0.10580   0.62413
  0 C 3dxz    -0.00000   0.00000   0.00000   0.23175   0.37174
 0 C 3dx2-y2  -0.00000   0.00000   0.00000   0.27416   0.51370
  0 C 4dxy    -0.00000   0.00000  -0.00000  -0.10702   0.08248
  0 C 4dyz     0.00000   0.00000  -0.00000  -0.21745   0.05950
  0 C 4dz^2   -0.00000  -0.00000  -0.00000  -0.02883  -0.17010
  0 C 4dxz     0.00000  -0.00000  -0.00000  -0.06316  -0.10132
 0 C 4dx2-y2   0.00000  -0.00000  -0.00000  -0.07472  -0.14000
  0 C 4fy^3   -0.44019   0.17663  -0.38290   0.00000  -0.00000
  0 C 4fxyz   -0.10509   0.19233  -0.51288   0.00000  -0.00000
  0 C 4fyz^2   0.07435  -0.02221  -0.72224   0.00000   0.00000
  0 C 4fz^3   -0.71213  -0.51695   0.06754  -0.00000   0.00000
  0 C 4fxz^2   0.20391  -0.36983  -0.09823   0.00000   0.00000
  0 C 4fzx^2   0.02758  -0.63150  -0.12303   0.00000   0.00000
  0 C 4fx^3    0.49009  -0.35848  -0.19840   0.00000   0.00000
               #26       #27       #28       #29      
  0 C 2s       0.00000   0.00000  -0.01245  -0.00075
  0 C 3s       0.00000  -0.00000  -0.00026   0.81706
  0 C 4s       0.00000  -0.00000   0.00346   0.57656
  0 C 2px     -0.00000  -0.00000  -0.00000   0.00000
  0 C 2py     -0.00000   0.00000   0.00000   0.00000
  0 C 2pz     -0.00000  -0.00000   0.00000   0.00000
  0 C 3px      0.00000   0.00000   0.00000  -0.00000
  0 C 3py      0.00000  -0.00000  -0.00000  -0.00000
  0 C 3pz     -0.00000   0.00000  -0.00000  -0.00000
  0 C 4px      0.00000   0.00000   0.00000  -0.00000
  0 C 4py      0.00000  -0.00000  -0.00000  -0.00000
  0 C 4pz     -0.00000   0.00000  -0.00000  -0.00000
  0 C 3dxy    -0.39085   0.68916   0.24661  -0.00046
  0 C 3dyz     0.38209  -0.28560  -0.14231   0.00027
  0 C 3dz^2    0.53945   0.47358   0.13206  -0.00025
  0 C 3dxz    -0.30485  -0.39314   0.70414  -0.00132
 0 C 3dx2-y2  -0.50268  -0.00629  -0.58521   0.00110
  0 C 4dxy     0.10272  -0.18112  -0.06397   0.00004
  0 C 4dyz    -0.10042   0.07506   0.03692  -0.00002
  0 C 4dz^2   -0.14178  -0.12446  -0.03426   0.00002
  0 C 4dxz     0.08012   0.10332  -0.18266   0.00011
 0 C 4dx2-y2   0.13211   0.00165   0.15181  -0.00009
  0 C 4fy^3   -0.00000   0.00000   0.00000   0.00000
  0 C 4fxyz    0.00000  -0.00000   0.00000   0.00000
  0 C 4fyz^2   0.00000  -0.00000  -0.00000  -0.00000
  0 C 4fz^3    0.00000   0.00000  -0.00000  -0.00000
  0 C 4fxz^2   0.00000   0.00000   0.00000   0.00000
  0 C 4fzx^2  -0.00000  -0.00000   0.00000   0.00000
  0 C 4fx^3   -0.00000  -0.00000  -0.00000  -0.00000
 ** MO coefficients (expansion on meta-Lowdin AOs) for beta spin **
               #1        #2        #3        #4        #5       
  0 C 2s       0.99873   0.00000   0.00000   0.00001   0.00000
  0 C 3s      -0.02061  -0.00000  -0.00000  -0.00000  -0.00000
  0 C 4s       0.02779   0.00000   0.00000   0.00000   0.00000
  0 C 2px      0.00001  -0.81683  -0.16136  -0.46223  -0.24417
  0 C 2py      0.00000   0.16508   0.74907  -0.54184   0.04935
  0 C 2pz      0.00000   0.47134  -0.54198  -0.61126   0.14090
  0 C 3px      0.00000   0.03732   0.01062   0.03042  -0.22608
  0 C 3py     -0.00000  -0.00754  -0.04929   0.03566   0.04569
  0 C 3pz     -0.00000  -0.02154   0.03567   0.04023   0.13046
  0 C 4px     -0.00000  -0.24327  -0.05835  -0.16716   0.78555
  0 C 4py      0.00000   0.04916   0.27090  -0.19595  -0.15876
  0 C 4pz      0.00000   0.14038  -0.19600  -0.22106  -0.45329
  0 C 3dxy    -0.00493   0.00000   0.00000  -0.00000   0.00000
  0 C 3dyz     0.00285   0.00000  -0.00000   0.00000  -0.00000
  0 C 3dz^2   -0.00264   0.00000   0.00000   0.00000   0.00000
  0 C 3dxz    -0.01409   0.00000  -0.00000  -0.00000   0.00000
 0 C 3dx2-y2   0.01171  -0.00000  -0.00000  -0.00000  -0.00000
  0 C 4dxy    -0.00791   0.00000   0.00000  -0.00000  -0.00000
  0 C 4dyz     0.00456  -0.00000  -0.00000   0.00000   0.00000
  0 C 4dz^2   -0.00423   0.00000   0.00000   0.00000   0.00000
  0 C 4dxz    -0.02257   0.00000  -0.00000  -0.00000   0.00000
 0 C 4dx2-y2   0.01876  -0.00000  -0.00000   0.00000  -0.00000
  0 C 4fy^3   -0.00000   0.00358   0.00568  -0.00241   0.00309
  0 C 4fxyz   -0.00000  -0.00342  -0.00404   0.00452  -0.00295
  0 C 4fyz^2   0.00000   0.00027  -0.00077  -0.00163   0.00024
  0 C 4fz^3    0.00000  -0.00537  -0.00072  -0.00082  -0.00464
  0 C 4fxz^2  -0.00000  -0.00135   0.00576   0.00635  -0.00117
  0 C 4fzx^2  -0.00000   0.00813  -0.00301   0.00044   0.00701
  0 C 4fx^3    0.00000  -0.00526   0.00107  -0.00480  -0.00454
               #6        #7        #8        #9        #10      
  0 C 2s       0.00000  -0.00000   0.03519   0.03398   0.00000
  0 C 3s      -0.00000   0.00000   0.57275  -0.01227   0.00000
  0 C 4s       0.00000  -0.00000  -0.81855   0.01960  -0.00000
  0 C 2px     -0.05727   0.16957  -0.00000   0.00000  -0.00000
  0 C 2py      0.27585   0.19529  -0.00000  -0.00000  -0.00000
  0 C 2pz     -0.19585   0.22547  -0.00000  -0.00000  -0.00000
  0 C 3px     -0.04461   0.13211  -0.00000   0.00000  -0.00000
  0 C 3py      0.21490   0.15214  -0.00000  -0.00000  -0.00000
  0 C 3pz     -0.15258   0.17565  -0.00000  -0.00000   0.00000
  0 C 4px      0.15028  -0.44499   0.00000  -0.00000   0.00000
  0 C 4py     -0.72387  -0.51248   0.00000   0.00000   0.00000
  0 C 4pz      0.51396  -0.59167   0.00000   0.00000   0.00000
  0 C 3dxy     0.00000   0.00000  -0.00230   0.06112   0.09241
  0 C 3dyz    -0.00000  -0.00000   0.00132  -0.03527  -0.09266
  0 C 3dz^2    0.00000  -0.00000  -0.00123   0.03273  -0.13609
  0 C 3dxz    -0.00000   0.00000  -0.00655   0.17451   0.07766
 0 C 3dx2-y2  -0.00000   0.00000   0.00545  -0.14504   0.12420
  0 C 4dxy     0.00000   0.00000   0.00631   0.24713   0.37549
  0 C 4dyz     0.00000   0.00000  -0.00364  -0.14261  -0.37654
  0 C 4dz^2   -0.00000  -0.00000   0.00338   0.13234  -0.55300
  0 C 4dxz    -0.00000   0.00000   0.01803   0.70563   0.31557
 0 C 4dx2-y2  -0.00000   0.00000  -0.01498  -0.58645   0.50470
  0 C 4fy^3    0.00560   0.00231   0.00000   0.00000  -0.00000
  0 C 4fxyz   -0.00401  -0.00440   0.00000  -0.00000  -0.00000
  0 C 4fyz^2  -0.00074   0.00161  -0.00000   0.00000   0.00000
  0 C 4fz^3   -0.00070   0.00081  -0.00000  -0.00000   0.00000
  0 C 4fxz^2   0.00560  -0.00629   0.00000  -0.00000  -0.00000
  0 C 4fzx^2  -0.00296  -0.00040   0.00000   0.00000  -0.00000
  0 C 4fx^3    0.00110   0.00470  -0.00000   0.00000  -0.00000
               #11       #12       #13       #14       #15      
  0 C 2s      -0.00000  -0.00000   0.00000   0.00000  -0.00000
  0 C 3s       0.00000  -0.00000   0.00000   0.00000  -0.00000
  0 C 4s      -0.00000   0.00000  -0.00000  -0.00000   0.00000
  0 C 2px      0.00000  -0.00000  -0.00000  -0.03031   0.00591
  0 C 2py     -0.00000   0.00000  -0.00000   0.00613  -0.02836
  0 C 2pz      0.00000  -0.00000  -0.00000   0.01749   0.02017
  0 C 3px      0.00000  -0.00000  -0.00000   0.82167  -0.16095
  0 C 3py     -0.00000   0.00000  -0.00000  -0.16606   0.77245
  0 C 3pz      0.00000  -0.00000  -0.00000  -0.47414  -0.54945
  0 C 4px     -0.00000   0.00000   0.00000   0.22722  -0.04556
  0 C 4py      0.00000  -0.00000   0.00000  -0.04592   0.21864
  0 C 4pz     -0.00000   0.00000   0.00000  -0.13111  -0.15552
  0 C 3dxy     0.17257  -0.07375   0.09567   0.00000   0.00000
  0 C 3dyz    -0.07284  -0.05321   0.19442  -0.00000   0.00000
  0 C 3dz^2    0.11374   0.15208   0.02579  -0.00000  -0.00000
  0 C 3dxz    -0.09528   0.09058   0.05648   0.00000  -0.00000
 0 C 3dx2-y2   0.00146   0.12517   0.06682   0.00000  -0.00000
  0 C 4dxy     0.70125  -0.30490   0.39555   0.00000   0.00000
  0 C 4dyz    -0.29598  -0.22000   0.80379  -0.00000   0.00000
  0 C 4dz^2    0.46218   0.62876   0.10663  -0.00000  -0.00000
  0 C 4dxz    -0.38716   0.37448   0.23349   0.00000  -0.00000
 0 C 4dx2-y2   0.00595   0.51749   0.27624   0.00000  -0.00000
  0 C 4fy^3   -0.00000  -0.00000  -0.00000  -0.00499   0.00869
  0 C 4fxyz   -0.00000   0.00000  -0.00000   0.00476  -0.00622
  0 C 4fyz^2   0.00000  -0.00000  -0.00000  -0.00038  -0.00116
  0 C 4fz^3   -0.00000  -0.00000   0.00000   0.00748  -0.00109
  0 C 4fxz^2   0.00000  -0.00000  -0.00000   0.00188   0.00870
  0 C 4fzx^2  -0.00000  -0.00000   0.00000  -0.01130  -0.00459
  0 C 4fx^3    0.00000  -0.00000   0.00000   0.00732   0.00170
               #16       #17       #18       #19       #20      
  0 C 2s       0.00000  -0.00000   0.00000   0.00000  -0.00000
  0 C 3s       0.00000  -0.00000   0.00000  -0.00000  -0.00000
  0 C 4s      -0.00000  -0.00000  -0.00000   0.00000   0.00000
  0 C 2px     -0.01744   0.01203  -0.00201   0.00582  -0.00000
  0 C 2py     -0.02012  -0.00243   0.00944   0.00677  -0.00000
  0 C 2pz     -0.02318  -0.00694  -0.00678   0.00771   0.00000
  0 C 3px      0.47502   0.01588  -0.00274   0.00793  -0.00000
  0 C 3py      0.54801  -0.00321   0.01287   0.00924   0.00000
  0 C 3pz      0.63128  -0.00917  -0.00925   0.01051   0.00000
  0 C 4px      0.13445  -0.00145   0.00021  -0.00062   0.00000
  0 C 4py      0.15511   0.00029  -0.00100  -0.00072   0.00000
  0 C 4pz      0.17868   0.00083   0.00072  -0.00082  -0.00000
  0 C 3dxy     0.00000  -0.00000  -0.00000  -0.00000   0.00000
  0 C 3dyz     0.00000   0.00000   0.00000   0.00000  -0.00000
  0 C 3dz^2    0.00000   0.00000  -0.00000   0.00000   0.00000
  0 C 3dxz     0.00000   0.00000   0.00000  -0.00000  -0.00000
 0 C 3dx2-y2  -0.00000  -0.00000  -0.00000   0.00000   0.00000
  0 C 4dxy     0.00000   0.00000   0.00000   0.00000  -0.00000
  0 C 4dyz     0.00000  -0.00000  -0.00000  -0.00000   0.00000
  0 C 4dz^2    0.00000  -0.00000   0.00000  -0.00000  -0.00000
  0 C 4dxz     0.00000  -0.00000  -0.00000   0.00000   0.00000
 0 C 4dx2-y2   0.00000   0.00000   0.00000  -0.00000  -0.00000
  0 C 4fy^3    0.00360   0.29353  -0.58932  -0.24771  -0.44020
  0 C 4fxyz   -0.00684  -0.28041   0.42048   0.46712  -0.10510
  0 C 4fyz^2   0.00249   0.02236   0.07962  -0.16905   0.07435
  0 C 4fz^3    0.00125  -0.44004   0.07458  -0.08476  -0.71213
  0 C 4fxz^2  -0.00976  -0.11066  -0.59467   0.65991   0.20391
  0 C 4fzx^2  -0.00062   0.66542   0.31178   0.04390   0.02758
  0 C 4fx^3    0.00730  -0.43069  -0.11298  -0.49686   0.49009
               #21       #22       #23       #24       #25      
  0 C 2s      -0.00000  -0.00000  -0.00000   0.01185   0.00000
  0 C 3s      -0.00000  -0.00000  -0.00000   0.00781  -0.00000
  0 C 4s       0.00000  -0.00000   0.00000  -0.01198  -0.00000
  0 C 2px      0.00000  -0.00000  -0.00000   0.00000   0.00000
  0 C 2py     -0.00000  -0.00000  -0.00000  -0.00000  -0.00000
  0 C 2pz     -0.00000   0.00000  -0.00000  -0.00000   0.00000
  0 C 3px      0.00000   0.00000   0.00000  -0.00000   0.00000
  0 C 3py     -0.00000   0.00000   0.00000  -0.00000   0.00000
  0 C 3pz     -0.00000  -0.00000   0.00000  -0.00000  -0.00000
  0 C 4px     -0.00000   0.00000   0.00000  -0.00000  -0.00000
  0 C 4py      0.00000   0.00000   0.00000  -0.00000   0.00000
  0 C 4pz      0.00000  -0.00000   0.00000   0.00000  -0.00000
  0 C 3dxy    -0.00000   0.00000   0.00000   0.24730   0.69306
  0 C 3dyz     0.00000   0.00000   0.00000  -0.14270  -0.28786
  0 C 3dz^2    0.00000  -0.00000   0.00000   0.13243   0.47390
  0 C 3dxz    -0.00000  -0.00000   0.00000   0.70609  -0.39382
 0 C 3dx2-y2  -0.00000  -0.00000   0.00000  -0.58684  -0.00485
  0 C 4dxy     0.00000  -0.00000  -0.00000  -0.06118  -0.17056
  0 C 4dyz    -0.00000  -0.00000  -0.00000   0.03530   0.07084
  0 C 4dz^2   -0.00000   0.00000  -0.00000  -0.03276  -0.11663
  0 C 4dxz     0.00000   0.00000  -0.00000  -0.17468   0.09692
 0 C 4dx2-y2   0.00000   0.00000  -0.00000   0.14518   0.00119
  0 C 4fy^3    0.36523  -0.19800  -0.37230  -0.00000   0.00000
  0 C 4fxyz    0.46378  -0.22103  -0.50118   0.00000   0.00000
  0 C 4fyz^2  -0.66099  -0.01866  -0.72234  -0.00000  -0.00000
  0 C 4fz^3   -0.12075   0.51994   0.03820   0.00000   0.00000
  0 C 4fxz^2  -0.10156   0.36369  -0.11899   0.00000  -0.00000
  0 C 4fzx^2   0.20762   0.62353  -0.15855  -0.00000   0.00000
  0 C 4fx^3    0.38289   0.34669  -0.21835  -0.00000  -0.00000
               #26       #27       #28       #29      
  0 C 2s      -0.00000   0.00000  -0.00000  -0.00092
  0 C 3s      -0.00000   0.00000  -0.00000  -0.81934
  0 C 4s       0.00000  -0.00000   0.00000  -0.57330
  0 C 2px     -0.00000   0.00000   0.00000   0.00000
  0 C 2py     -0.00000  -0.00000   0.00000   0.00000
  0 C 2pz     -0.00000   0.00000   0.00000   0.00000
  0 C 3px     -0.00000   0.00000   0.00000  -0.00000
  0 C 3py      0.00000  -0.00000   0.00000   0.00000
  0 C 3pz      0.00000   0.00000   0.00000   0.00000
  0 C 4px     -0.00000   0.00000   0.00000  -0.00000
  0 C 4py      0.00000  -0.00000   0.00000  -0.00000
  0 C 4pz      0.00000   0.00000   0.00000  -0.00000
  0 C 3dxy     0.39041   0.30488  -0.39556  -0.00004
  0 C 3dyz    -0.38278   0.21996  -0.80380   0.00002
  0 C 3dz^2   -0.54299  -0.62876  -0.10660  -0.00002
  0 C 3dxz     0.30722  -0.37450  -0.23348  -0.00011
 0 C 3dx2-y2   0.50471  -0.51750  -0.27621   0.00009
  0 C 4dxy    -0.09608  -0.07374   0.09568   0.00033
  0 C 4dyz     0.09420  -0.05320   0.19442  -0.00019
  0 C 4dz^2    0.13363   0.15208   0.02578   0.00018
  0 C 4dxz    -0.07560   0.09058   0.05647   0.00093
 0 C 4dx2-y2  -0.12421   0.12517   0.06681  -0.00078
  0 C 4fy^3    0.00000  -0.00000  -0.00000   0.00000
  0 C 4fxyz    0.00000  -0.00000  -0.00000  -0.00000
  0 C 4fyz^2  -0.00000  -0.00000  -0.00000   0.00000
  0 C 4fz^3   -0.00000  -0.00000   0.00000   0.00000
  0 C 4fxz^2   0.00000  -0.00000  -0.00000  -0.00000
  0 C 4fzx^2   0.00000  -0.00000   0.00000  -0.00000
  0 C 4fx^3   -0.00000  -0.00000   0.00000   0.00000

To work with the spin densities directly, `use mulliken_meta_spin()` only printing them here.

 ** Mulliken spin pop alpha/beta on meta-lowdin orthogonal AOs **
 ** Mulliken Spin Density (per AO)  **
spin_pop of  0 C 2s        0.00018
spin_pop of  0 C 3s       -0.00014
spin_pop of  0 C 4s       -0.00027
spin_pop of  0 C 2px       0.27209
spin_pop of  0 C 2py       0.97022
spin_pop of  0 C 2pz       0.75759
spin_pop of  0 C 3px       0.00000
spin_pop of  0 C 3py       0.00000
spin_pop of  0 C 3pz       0.00000
spin_pop of  0 C 4px       0.00001
spin_pop of  0 C 4py       0.00005
spin_pop of  0 C 4pz       0.00004
spin_pop of  0 C 3dxy      0.00001
spin_pop of  0 C 3dyz      0.00000
spin_pop of  0 C 3dz^2     0.00000
spin_pop of  0 C 3dxz      0.00005
spin_pop of  0 C 3dx2-y2    0.00003
spin_pop of  0 C 4dxy      0.00001
spin_pop of  0 C 4dyz      0.00000
spin_pop of  0 C 4dz^2     0.00000
spin_pop of  0 C 4dxz      0.00008
spin_pop of  0 C 4dx2-y2    0.00005
spin_pop of  0 C 4fy^3     0.00000
spin_pop of  0 C 4fxyz     0.00000
spin_pop of  0 C 4fyz^2    0.00000
spin_pop of  0 C 4fz^3     0.00000
spin_pop of  0 C 4fxz^2    0.00000
spin_pop of  0 C 4fzx^2    0.00000
spin_pop of  0 C 4fx^3     0.00000
 ** Mulliken Spin Density (per atom)  **
spin density of  0 C =      2.00000
 ** Mulliken pop alpha/beta on meta-lowdin orthogonal AOs **
 ** Mulliken pop       alpha | beta **
pop of  0 C 2s        0.99765 | 0.99747   
pop of  0 C 3s        0.00028 | 0.00042   
pop of  0 C 4s        0.00050 | 0.00077   
pop of  0 C 2px       0.27209 | 0.00000   
pop of  0 C 2py       0.97022 | 0.00000   
pop of  0 C 2pz       0.75759 | 0.00000   
pop of  0 C 3px       0.00000 | 0.00000   
pop of  0 C 3py       0.00000 | 0.00000   
pop of  0 C 3pz       0.00000 | 0.00000   
pop of  0 C 4px       0.00001 | 0.00000   
pop of  0 C 4py       0.00005 | 0.00000   
pop of  0 C 4pz       0.00004 | 0.00000   
pop of  0 C 3dxy      0.00003 | 0.00002   
pop of  0 C 3dyz      0.00001 | 0.00001   
pop of  0 C 3dz^2     0.00001 | 0.00001   
pop of  0 C 3dxz      0.00025 | 0.00020   
pop of  0 C 3dx2-y2    0.00017 | 0.00014   
pop of  0 C 4dxy      0.00007 | 0.00006   
pop of  0 C 4dyz      0.00002 | 0.00002   
pop of  0 C 4dz^2     0.00002 | 0.00002   
pop of  0 C 4dxz      0.00058 | 0.00051   
pop of  0 C 4dx2-y2    0.00040 | 0.00035   
pop of  0 C 4fy^3     0.00000 | 0.00000   
pop of  0 C 4fxyz     0.00000 | 0.00000   
pop of  0 C 4fyz^2    0.00000 | 0.00000   
pop of  0 C 4fz^3     0.00000 | 0.00000   
pop of  0 C 4fxz^2    0.00000 | 0.00000   
pop of  0 C 4fzx^2    0.00000 | 0.00000   
pop of  0 C 4fx^3     0.00000 | 0.00000   
In total             3.00000 | 1.00000   
 ** Mulliken atomic charges   ( Nelec_alpha | Nelec_beta ) **
charge of  0C =     -0.00000  (     3.00000      1.00000 )
Dipole moment(X, Y, Z, Debye): -0.00002, -0.00001, -0.00001
Converting <class 'pyscf.soscf.newton_ah.newton.<locals>.SecondOrderUHF'> to UHF

******** <class 'pyscf.cc.uccsd.UCCSD'> ********
CC2 = 0
CCSD nocc = (3, 1), nmo = (29, 29)
max_cycle = 50
direct = 0
conv_tol = 1e-07
conv_tol_normt = 1e-06
diis_space = 6
diis_start_cycle = 0
diis_start_energy_diff = 1e+09
max_memory 4000 MB (current use 73 MB)
E1 = -8.342152881121615  Ecoul = 3.0225978452936264
Init t2, MP2 energy = -0.0676896215976079
    CPU time for init mp2      0.00 sec, wall time      0.00 sec
Init E_corr(CCSD) = -0.0676896216551958
cycle = 1  E_corr(CCSD) = -0.0815536266637677  dE = -0.013864005  norm(t1,t2) = 0.0470892
    CPU time for CCSD iter      0.02 sec, wall time      0.02 sec
cycle = 2  E_corr(CCSD) = -0.0856464302601178  dE = -0.0040928036  norm(t1,t2) = 0.0204748
    CPU time for CCSD iter      0.02 sec, wall time      0.02 sec
cycle = 3  E_corr(CCSD) = -0.0886846311314429  dE = -0.00303820087  norm(t1,t2) = 0.0102813
    CPU time for CCSD iter      0.02 sec, wall time      0.02 sec
cycle = 4  E_corr(CCSD) = -0.0886377882132017  dE = 4.68429182e-05  norm(t1,t2) = 0.00140063
    CPU time for CCSD iter      0.02 sec, wall time      0.02 sec
cycle = 5  E_corr(CCSD) = -0.0886560249352431  dE = -1.8236722e-05  norm(t1,t2) = 0.000251556
    CPU time for CCSD iter      0.02 sec, wall time      0.02 sec
cycle = 6  E_corr(CCSD) = -0.0886500163132642  dE = 6.00862198e-06  norm(t1,t2) = 4.13668e-05
    CPU time for CCSD iter      0.02 sec, wall time      0.02 sec
cycle = 7  E_corr(CCSD) = -0.0886524460749461  dE = -2.42976168e-06  norm(t1,t2) = 8.88194e-06
    CPU time for CCSD iter      0.02 sec, wall time      0.02 sec
cycle = 8  E_corr(CCSD) = -0.0886518991077105  dE = 5.46967236e-07  norm(t1,t2) = 2.21118e-06
    CPU time for CCSD iter      0.02 sec, wall time      0.02 sec
cycle = 9  E_corr(CCSD) = -0.0886519015624141  dE = -2.45470363e-09  norm(t1,t2) = 4.94767e-07
    CPU time for CCSD iter      0.02 sec, wall time      0.02 sec
    CPU time for CCSD      0.19 sec, wall time      0.19 sec
UCCSD converged
E(UCCSD) = -5.408206937390403  E_corr = -0.08865190156241409
E1 = -8.342152881121615  Ecoul = 3.0225978452936264
max_memory 3904 MB (95 MB in use)
max_memory 3904 MB (95 MB in use)
    CPU time for UCCSD(T)      0.08 sec, wall time      0.11 sec
UCCSD(T) correction = -0.00207382568518243


CCSD correlation energy:  -0.08865190156241409
E1 = -8.342152881121615  Ecoul = 3.0225978452936264
CCSD total energy:  -5.408206937390403


CCSD(T) correlation energy:  -0.09072572724759653
E1 = -8.342152881121615  Ecoul = 3.0225978452936264
CCSD(T) total energy:  -5.410280763075586
