#INFO: **** input file is /projects/ilsa8974/experiments/VMCr/papers/jpghf_realspace/benzene/cc/ae/dz/Benzene/benzene.py ****
import json
import numpy as np
from pyscf import lib, gto, scf, ao2mo, tools, fci, mcscf, cc
from pyscf.shciscf import shci, settings

bondlengths = {'CC':2.636, 'CH':2.038}

atomstring = f""
for i in range(6):
    x = np.cos(i * np.pi / 3)
    y = np.sin(i * np.pi / 3)
    atomstring += f"C\t{bondlengths['CC']*x}\t{bondlengths['CC']*y}\t0.0;"
    atomstring += f"H\t{(bondlengths['CC']+bondlengths['CH'])*x}\t{(bondlengths['CC']+bondlengths['CH'])*y}\t0.0;"

mol = gto.M(
atom = atomstring,
unit = "bohr",
cart = False,
spin = 0,
basis = "ccpvdz",
verbose = 5
)
mf = scf.UHF(mol).newton()
norbs = mol.nao

dm = mf.get_init_guess()

dm = dm + (2.0 * np.random.rand(norbs, norbs) - 1.0) / 1000
mf.max_cycle = 100
mf.kernel(dm0 = dm)
mf.analyze()

mycc = mf.CCSD()
mycc.run()
et = mycc.ccsd_t()
print("\n")
print('CCSD correlation energy: ', mycc.e_corr)
print('CCSD total energy: ', mf.energy_tot() + mycc.e_corr)
print("\n")
print('CCSD(T) correlation energy: ', mycc.e_corr + et)
print('CCSD(T) total energy: ', mf.energy_tot() + mycc.e_corr + et)
#INFO: ******************** input file end ********************


System: uname_result(system='Linux', node='bnode0303.rc.int.colorado.edu', release='3.10.0-693.37.4.el7.x86_64', version='#1 SMP Fri Aug 10 12:34:55 EDT 2018', machine='x86_64', processor='x86_64')  Threads 1
Python 3.7.3 (default, Mar 27 2019, 22:11:17) 
[GCC 7.3.0]
numpy 1.16.4  scipy 1.3.0
Date: Wed Jun  9 13:17:08 2021
PySCF version 1.7.5
PySCF path  /projects/ilsa8974/apps/pyscf/pyscf
GIT HEAD      ref: refs/heads/master
GIT master branch  7a57d2f37184ea4cd3b52a590c945197b084f66d

[CONFIG] conf_file None
[INPUT] verbose = 5
[INPUT] max_memory = 4000 
[INPUT] num. atoms = 12
[INPUT] num. electrons = 42
[INPUT] charge = 0
[INPUT] spin (= nelec alpha-beta = 2S) = 0
[INPUT] symmetry False subgroup None
[INPUT] Mole.unit = bohr
[INPUT]  1 C      1.394911127985   0.000000000000   0.000000000000 AA    2.636000000000   0.000000000000   0.000000000000 Bohr
[INPUT]  2 H      2.473374283840   0.000000000000   0.000000000000 AA    4.674000000000   0.000000000000   0.000000000000 Bohr
[INPUT]  3 C      0.697455563993   1.208028472857   0.000000000000 AA    1.318000000000   2.282842964376   0.000000000000 Bohr
[INPUT]  4 H      1.236687141920   2.142004962873   0.000000000000 AA    2.337000000000   4.047802737288   0.000000000000 Bohr
[INPUT]  5 C     -0.697455563993   1.208028472857   0.000000000000 AA   -1.318000000000   2.282842964376   0.000000000000 Bohr
[INPUT]  6 H     -1.236687141920   2.142004962873   0.000000000000 AA   -2.337000000000   4.047802737288   0.000000000000 Bohr
[INPUT]  7 C     -1.394911127985   0.000000000000   0.000000000000 AA   -2.636000000000   0.000000000000   0.000000000000 Bohr
[INPUT]  8 H     -2.473374283840   0.000000000000   0.000000000000 AA   -4.674000000000   0.000000000000   0.000000000000 Bohr
[INPUT]  9 C     -0.697455563993  -1.208028472857   0.000000000000 AA   -1.318000000000  -2.282842964376   0.000000000000 Bohr
[INPUT] 10 H     -1.236687141920  -2.142004962873   0.000000000000 AA   -2.337000000000  -4.047802737288   0.000000000000 Bohr
[INPUT] 11 C      0.697455563993  -1.208028472857   0.000000000000 AA    1.318000000000  -2.282842964376   0.000000000000 Bohr
[INPUT] 12 H      1.236687141920  -2.142004962873   0.000000000000 AA    2.337000000000  -4.047802737288   0.000000000000 Bohr
[INPUT] ---------------- BASIS SET ---------------- 
[INPUT] l, kappa, [nprim/nctr], expnt,             c_1 c_2 ...
[INPUT] H
[INPUT] 0    0    [3    /1   ]  13.01             0.019685
                                1.962             0.137977
                                0.4446            0.478148
[INPUT] 0    0    [1    /1   ]  0.122                1
[INPUT] 1    0    [1    /1   ]  0.727                1
[INPUT] C
[INPUT] 0    0    [8    /2   ]  6665              0.000692 -0.000146
                                1000              0.005329 -0.001154
                                228               0.027077 -0.005725
                                64.71             0.101718 -0.023312
                                21.06             0.27474 -0.063955
                                7.495             0.448564 -0.149981
                                2.797             0.285074 -0.127262
                                0.5215            0.015204 0.544529
[INPUT] 0    0    [1    /1   ]  0.1596               1
[INPUT] 1    0    [3    /1   ]  9.439             0.038109
                                2.002             0.20948
                                0.5456            0.508557
[INPUT] 1    0    [1    /1   ]  0.1517               1
[INPUT] 2    0    [1    /1   ]  0.55                 1

nuclear repulsion = 203.640065976835
number of shells = 48
number of NR pGTOs = 198
number of NR cGTOs = 114
basis = ccpvdz
ecp = {}
CPU time:         0.36




******** <class 'pyscf.scf.uhf.UHF'> ********
method = UHF
initial guess = minao
damping factor = 0
level_shift factor = 0
DIIS = <class 'pyscf.scf.diis.CDIIS'>
diis_start_cycle = 1
diis_space = 8
SCF conv_tol = 1e-09
SCF conv_tol_grad = None
SCF max_cycles = 50
direct_scf = True
direct_scf_tol = 1e-13
chkfile to save SCF result = /rc_scratch/ilsa8974/tmpderof7gd
max_memory 4000 MB (current use 65 MB)
number electrons alpha = 21  beta = 21
******** <class 'pyscf.scf.uhf.UHF'> Newton solver flags ********
SCF tol = 1e-09
conv_tol_grad = None
max. SCF cycles = 100
direct_scf = True
direct_scf_tol = 1e-13
chkfile to save SCF result = /rc_scratch/ilsa8974/tmpderof7gd
max_cycle_inner = 12
max_stepsize = 0.05
ah_start_tol = 1e+09
ah_level_shift = 0
ah_conv_tol = 1e-12
ah_lindep = 1e-14
ah_start_cycle = 1
ah_max_cycle = 40
ah_grad_trust_region = 2.5
kf_interval = 4
kf_trust_region = 5
canonicalization = True
max_memory 4000 MB (current use 65 MB)
Set conv_tol_grad to 3.16228e-05
  alpha nocc = 21  HOMO = -0.0121325345004393  LUMO = 0.26720490400937
  beta  nocc = 21  HOMO = -0.0284242476449241  LUMO = 0.256773995100161
  alpha mo_energy =
[-11.06579465 -11.06163963 -11.05552946 -11.05166856 -11.0475877
 -11.04066658  -1.41242947  -1.06639218  -1.06615729  -0.67125432
  -0.67034052  -0.45212125  -0.38934674  -0.24647424  -0.24587207
  -0.24431269  -0.18890586  -0.10640268  -0.10558456  -0.01341334
  -0.01213253   0.2672049    0.26887654   0.29695417   0.32376776
   0.35238462   0.3591184    0.38197725   0.385505     0.45266373
   0.46411976   0.56413776   0.58219554   0.61663861   0.62575799
   0.74729585   0.76310752   0.85469569   0.88183822   0.88284766
   0.89912532   0.90130357   0.90244434   0.90346824   0.91175904
   0.92393219   0.97491264   0.97691842   1.00905718   1.01683371
   1.02764642   1.03561794   1.05340414   1.10069116   1.15462076
   1.23478335   1.24001165   1.2633133    1.28855337   1.34115659
   1.34708622   1.35386538   1.39507639   1.41973042   1.42545892
   1.42771043   1.42935421   1.49951695   1.50042532   1.564566
   1.63950286   1.65115849   1.68209357   1.89308377   1.91103323
   1.91320195   1.93073594   1.9869183    2.02874308   2.0350351
   2.06444677   2.07498073   2.07568353   2.12404216   2.1248654
   2.12799036   2.14241043   2.25984261   2.26223659   2.29430239
   2.31055416   2.31592599   2.33349063   2.33844275   2.43528312
   2.43925487   2.44223726   2.44415659   2.45470562   2.49028251
   2.67032004   2.74028653   2.87931585   2.89975878   2.92273266
   2.96502484   2.97281687   2.99211269   3.13871239   3.14047955
   3.31094841   3.45853041   3.46363793   4.20930838]
  beta  mo_energy =
[-11.06373099 -11.05936182 -11.05332541 -11.04944025 -11.0453415
 -11.03841839  -1.5502474   -1.14570933  -1.1454801   -0.71414876
  -0.71324204  -0.49315451  -0.42311521  -0.28037453  -0.27976219
  -0.26670259  -0.20981171  -0.13277999  -0.13195122  -0.02970298
  -0.02842425   0.256774     0.25807538   0.28943608   0.32054427
   0.34738745   0.35428835   0.37651523   0.3803733    0.44344823
   0.45566882   0.55486113   0.57267507   0.60648626   0.61546269
   0.73382292   0.75604381   0.84957018   0.87246955   0.87352082
   0.88906969   0.89151932   0.89709154   0.89853562   0.89879577
   0.91579056   0.97047464   0.97248309   1.0025935    1.00999663
   1.0197433    1.0277323    1.04868441   1.09229165   1.14905751
   1.22309666   1.23341306   1.25698478   1.28200334   1.33393113
   1.33923945   1.34797619   1.38936247   1.41340404   1.41705806
   1.41907433   1.42144732   1.49101828   1.4918657    1.55880992
   1.63470463   1.6417311    1.67725882   1.88563031   1.90478515
   1.9069594    1.92480309   1.98025509   2.02224132   2.02857305
   2.05788551   2.06726459   2.06798973   2.1176943    2.11853218
   2.12221719   2.1368219    2.25434712   2.25674684   2.28797
   2.30521776   2.31096094   2.32760806   2.33295184   2.42957317
   2.43326867   2.43655778   2.43840901   2.44944024   2.48549444
   2.66585432   2.73534838   2.87363651   2.89461521   2.91765656
   2.959649     2.9674353    2.98727493   3.13379511   3.13559546
   3.3073703    3.45308808   3.45820526   4.2045888 ]
multiplicity <S^2> = 0.00045655408  2S+1 = 1.0009127
E1 = -708.840146607312  Ecoul = 274.63212248273487
Initial guess E= -230.567958147742  |g|= 0.47743
    CPU time for initializing second order scf      2.72 sec, wall time      2.98 sec
    |g|= 0.477 (keyframe)
    imic 1(1)  |g|= 0.442  |dxi|= 0.221  max(|x|)= 0.045  |dr|= 0.221  eig= -0.106  seig= 0.228
    imic 2(2)  |g|= 0.0729  |dxi|= 0.153  max(|x|)= 0.0393  |dr|= 0.334  eig= -0.0379  seig= 0.0108
    imic 3(3)  |g|= 0.0241  |dxi|= 0.0428  max(|x|)= 0.00742  |dr|= 0.352  eig= -0.00217  seig= 0.0011
E1 = -713.4724542092961  Ecoul = 279.1109734964069
Adjust keyframe g_orb to |g|= 0.0315  |g-correction|=0.0207  E=-230.721414736 dE=-0.15346
    imic 4(4)  |g|= 0.0205  |dxi|= 0.0136  max(|x|)= 0.00321  |dr|= 0.0136  eig= -0.000248  seig= 0.000132
    imic 5(5)  |g|= 0.0049  |dxi|= 0.0168  max(|x|)= 0.00342  |dr|= 0.0234  eig= -0.000306  seig= 0.000131
    imic 6(6)  |g|= 0.00166  |dxi|= 0.00299  max(|x|)= 0.000503  |dr|= 0.0241  eig= -1.3e-05  seig= 1.19e-05
E1 = -713.6398319037689  Ecoul = 279.2777282692769
Adjust keyframe g_orb to |g|= 0.0033  |g-correction|=0.00313  E=-230.722037658 dE=-0.00062292
    imic 7(7)  |g|= 0.00128  |dxi|= 0.00303  max(|x|)= 0.00078  |dr|= 0.00303  eig= -8.5e-06  seig= 1.51e-06
    imic 8(8)  |g|= 0.000329  |dxi|= 0.00102  max(|x|)= 0.000167  |dr|= 0.00331  eig= -1.16e-06  seig= 7.06e-07
    imic 9(9)  |g|= 0.000128  |dxi|= 0.000211  max(|x|)= 5.82e-05  |dr|= 0.00335  eig= -6.08e-08  seig= 7.3e-08
E1 = -713.666815410271  Ecoul = 279.3047008189634
Adjust keyframe g_orb to |g|= 0.00048  |g-correction|=0.000462  E=-230.722048614 dE=-1.0957e-05
Out of trust region. Restore previouse step
    tot inner=9  13 JK  |g|= 0.000329  |u-1|= 0.000211
    CPU time for aug_hess in 9 inner iters      2.15 sec, wall time      2.15 sec
  alpha nocc = 21  HOMO = -0.333418472657985  LUMO = 0.137248768695306
  beta  nocc = 21  HOMO = -0.333414754347845  LUMO = 0.137250476564787
  alpha mo_energy =
[-11.23848087 -11.23793175 -11.23790513 -11.23673117 -11.23672437
 -11.23613801  -1.14813798  -1.01329616  -1.01328963  -0.822435
  -0.82243413  -0.70693023  -0.64329107  -0.6148699   -0.58555299
  -0.58554657  -0.49876016  -0.49159817  -0.49159562  -0.33342263
  -0.33341847   0.13724877   0.13725124   0.183417     0.22040582
   0.22040954   0.25594141   0.25594426   0.27324659   0.35067877
   0.43761643   0.43761818   0.46983078   0.46983119   0.58541799
   0.5903926    0.67534225   0.68061584   0.71307115   0.7321496
   0.73215443   0.74172007   0.74172236   0.74322296   0.74454118
   0.74454212   0.82319029   0.82319372   0.8542909    0.85429389
   0.89054156   0.89054612   0.91054412   0.98808334   0.99857704
   1.04909863   1.10604675   1.10604799   1.12550655   1.15195058
   1.20342619   1.20342949   1.24515785   1.2451634    1.24579968
   1.24580199   1.31452012   1.31957018   1.31957071   1.47406642
   1.51735231   1.51735381   1.71841842   1.7441636    1.74416491
   1.76832015   1.81431423   1.87135168   1.87135504   1.90040421
   1.90040768   1.90320548   1.95503913   1.95504324   1.9638511
   1.96478262   1.96478339   2.0920898    2.09209165   2.12970346
   2.14795769   2.1479584    2.16824387   2.16909901   2.1690999
   2.27099582   2.2710006    2.2899589    2.28996407   2.33781495
   2.4993939    2.56857793   2.7212539    2.76754608   2.76754737
   2.80213726   2.80214422   2.97443017   2.97443251   3.00684998
   3.1439139    3.28775624   3.28775933   4.04290923]
  beta  mo_energy =
[-11.23847938 -11.23793023 -11.23790339 -11.23672997 -11.23672266
 -11.23613641  -1.14813316  -1.01329223  -1.01328473  -0.82243071
  -0.82242947  -0.70692019  -0.64328245  -0.61487161  -0.58554426
  -0.58553819  -0.49875798  -0.49159479  -0.49159229  -0.33342245
  -0.33341475   0.13725048   0.13725163   0.1834138    0.22040593
   0.22040957   0.25594124   0.25594405   0.27324498   0.35067975
   0.43761701   0.43761854   0.46982974   0.46983045   0.58541592
   0.59039053   0.67534083   0.68061689   0.7130715    0.73214966
   0.73215561   0.74171896   0.74172139   0.74322163   0.74453898
   0.74454019   0.82319023   0.82319503   0.85429174   0.85429458
   0.89054627   0.89055107   0.91054462   0.98809078   0.99858126
   1.04910119   1.10604898   1.10605035   1.12550727   1.15195057
   1.20342756   1.20343107   1.24515997   1.24516609   1.24579959
   1.24580198   1.31452011   1.31957081   1.31957159   1.47406687
   1.51735104   1.51735267   1.71842141   1.74416351   1.74416482
   1.76832      1.81431514   1.87135235   1.87135575   1.90040505
   1.90040887   1.90320305   1.95503769   1.9550419    1.96385106
   1.9647823    1.96478315   2.09208956   2.09209186   2.12970169
   2.14795808   2.14795863   2.16824365   2.16909908   2.16910012
   2.27099547   2.27100062   2.28995992   2.28996548   2.33781666
   2.49939463   2.56857841   2.72125575   2.76754703   2.76754846
   2.8021396    2.80214658   2.97443065   2.97443298   3.00685051
   3.14391375   3.28775842   3.28776161   4.04291164]
multiplicity <S^2> = 2.002146e-08  2S+1 = 1
E1 = -713.6673280050827  Ecoul = 279.3052134942148
macro= 0  E= -230.722048534033  delta_E= -0.15409  |g|= 0.00329606  4 KF 13 JK
    CPU time for cycle= 1      2.34 sec, wall time      2.34 sec
    |g|= 0.000573 (keyframe), |g-correction|= 0.000459
    imic 1(1)  |g|= 0.000487  |dxi|= 0.000249  max(|x|)= 6.86e-05  |dr|= 0.000249  eig= -8.24e-08  seig= 4.46e-08
    imic 2(2)  |g|= 0.000197  |dxi|= 0.000473  max(|x|)= 0.000137  |dr|= 0.000571  eig= -2.17e-07  seig= 4.44e-08
    imic 3(3)  |g|= 4.92e-05  |dxi|= 0.000178  max(|x|)= 3.4e-05  |dr|= 0.000674  eig= -2.88e-08  seig= 2.39e-08
E1 = -713.6719020225364  Ecoul = 279.3097871839574
Adjust keyframe g_orb to |g|= 4.92e-05  |g-correction|=1.1e-07  E=-230.722048862 dE=-3.2771e-07
    imic 4(4)  |g|= 2.18e-05  |dxi|= 3.78e-05  max(|x|)= 1.19e-05  |dr|= 3.78e-05  eig= -1.59e-09  seig= 1.38e-09
    imic 5(5)  |g|= 7.98e-06  |dxi|= 2.14e-05  max(|x|)= 6.73e-06  |dr|= 5.09e-05  eig= -3.71e-10  seig= 4.11e-10
    tot inner=5  7 JK  |g|= 7.98e-06  |u-1|= 5.09e-05
    CPU time for aug_hess in 5 inner iters      1.27 sec, wall time      1.34 sec
  alpha nocc = 21  HOMO = -0.333322988449069  LUMO = 0.137336036513548
  beta  nocc = 21  HOMO = -0.333322961681517  LUMO = 0.137336204980666
  alpha mo_energy =
[-11.23832169 -11.23776823 -11.23776814 -11.23657462 -11.23657453
 -11.23599356  -1.14801233  -1.01318051  -1.0131804   -0.82234092
  -0.82234086  -0.70685491  -0.64323415  -0.61475845  -0.58546758
  -0.58546753  -0.49865853  -0.49151391  -0.49151388  -0.33332337
  -0.33332299   0.13733604   0.13733633   0.18344765   0.22042576
   0.22042579   0.25595814   0.25595816   0.27325879   0.35075625
   0.43767521   0.43767524   0.46988963   0.46988966   0.58547484
   0.59044762   0.67540853   0.6807019    0.71318397   0.7322301
   0.73223021   0.74180077   0.74180079   0.74326445   0.74461871
   0.74461873   0.82326962   0.82326976   0.85435334   0.85435336
   0.89061664   0.89061667   0.91062064   0.98816904   0.99863838
   1.04919069   1.10611322   1.10611323   1.12558854   1.15205296
   1.20348884   1.20348887   1.24524453   1.2452446    1.24587012
   1.24587013   1.31458576   1.31965488   1.31965491   1.47415487
   1.51740887   1.51740889   1.71850404   1.7442389    1.74423891
   1.76836964   1.81440366   1.87141551   1.87141554   1.90049399
   1.90049403   1.90325119   1.95510455   1.95510458   1.96390906
   1.96483443   1.96483444   2.09217653   2.09217656   2.12975722
   2.14805484   2.14805486   2.1682954    2.16919423   2.16919424
   2.27107227   2.27107231   2.2900299    2.29002994   2.33788293
   2.49948436   2.56865776   2.72131486   2.76763175   2.76763177
   2.80221543   2.80221547   2.97451237   2.97451239   3.00692196
   3.14398802   3.28785609   3.28785611   4.04301508]
  beta  mo_energy =
[-11.23832159 -11.2377681  -11.23776807 -11.2365745  -11.23657446
 -11.23599346  -1.14801213  -1.01318026  -1.01318016  -0.82234065
  -0.8223406   -0.70685462  -0.64323397  -0.61475826  -0.5854675
  -0.58546744  -0.49865846  -0.49151391  -0.49151389  -0.33332321
  -0.33332296   0.1373362    0.13733639   0.18344761   0.22042582
   0.22042585   0.25595819   0.25595822   0.27325878   0.35075638
   0.4376752    0.43767524   0.46988958   0.4698896    0.58547479
   0.59044727   0.67540838   0.68070194   0.713184     0.73223013
   0.73223022   0.7418007    0.74180072   0.74326444   0.74461861
   0.74461862   0.82326969   0.82326977   0.85435344   0.85435346
   0.89061683   0.89061687   0.91062068   0.98816931   0.99863862
   1.0491908    1.10611338   1.1061134    1.12558873   1.152053
   1.20348889   1.20348893   1.24524461   1.24524467   1.24587004
   1.24587005   1.31458561   1.31965491   1.31965494   1.47415486
   1.51740875   1.51740876   1.71850414   1.74423887   1.74423888
   1.76836955   1.81440376   1.87141545   1.87141548   1.900494
   1.90049404   1.90325101   1.95510445   1.95510448   1.96390903
   1.96483435   1.96483436   2.09217656   2.0921766    2.12975708
   2.14805491   2.14805493   2.16829532   2.16919425   2.16919427
   2.27107222   2.27107227   2.2900299    2.29002995   2.33788297
   2.49948446   2.56865776   2.72131486   2.76763179   2.7676318
   2.80221546   2.80221549   2.97451239   2.97451241   3.00692198
   3.14398803   3.28785617   3.28785618   4.04301516]
multiplicity <S^2> = 2.2815758e-08  2S+1 = 1
E1 = -713.6718904036488  Ecoul = 279.30977556311296
macro= 1  E= -230.722048863701  delta_E= -3.29668e-07  |g|= 4.91826e-05  2 KF 7 JK
    CPU time for cycle= 2      1.29 sec, wall time      1.35 sec
    |g|= 7.98e-06 (keyframe), |g-correction|= 5.11e-09
    imic 1(1)  |g|= 7.98e-06  |dxi|= 2.29e-09  max(|x|)= 7.23e-10  |dr|= 2.29e-09  eig= -4.27e-18  seig= 4.56e-10
    tot inner=1  2 JK  |g|= 7.98e-06  |u-1|= 2.29e-09
    CPU time for aug_hess in 1 inner iters      0.39 sec, wall time      0.48 sec
  alpha nocc = 21  HOMO = -0.333322988292879  LUMO = 0.137336036647157
  beta  nocc = 21  HOMO = -0.333322961533063  LUMO = 0.137336205103599
  alpha mo_energy =
[-11.23832169 -11.23776823 -11.23776814 -11.23657462 -11.23657453
 -11.23599356  -1.14801233  -1.01318051  -1.0131804   -0.82234092
  -0.82234086  -0.70685491  -0.64323415  -0.61475845  -0.58546758
  -0.58546753  -0.49865853  -0.49151391  -0.49151388  -0.33332337
  -0.33332299   0.13733604   0.13733633   0.18344765   0.22042576
   0.22042579   0.25595814   0.25595816   0.27325879   0.35075625
   0.43767521   0.43767524   0.46988963   0.46988966   0.58547484
   0.59044762   0.67540853   0.6807019    0.71318397   0.7322301
   0.73223021   0.74180077   0.74180079   0.74326445   0.74461871
   0.74461873   0.82326962   0.82326976   0.85435334   0.85435336
   0.89061664   0.89061667   0.91062064   0.98816904   0.99863838
   1.04919069   1.10611322   1.10611323   1.12558854   1.15205296
   1.20348884   1.20348887   1.24524453   1.2452446    1.24587012
   1.24587013   1.31458576   1.31965488   1.31965491   1.47415487
   1.51740887   1.51740889   1.71850404   1.7442389    1.74423891
   1.76836964   1.81440366   1.87141551   1.87141554   1.90049399
   1.90049403   1.90325119   1.95510455   1.95510458   1.96390906
   1.96483443   1.96483444   2.09217653   2.09217656   2.12975722
   2.14805484   2.14805486   2.1682954    2.16919423   2.16919424
   2.27107227   2.27107231   2.2900299    2.29002994   2.33788293
   2.49948436   2.56865776   2.72131486   2.76763175   2.76763177
   2.80221543   2.80221547   2.97451237   2.97451239   3.00692196
   3.14398802   3.28785609   3.28785611   4.04301508]
  beta  mo_energy =
[-11.23832159 -11.2377681  -11.23776807 -11.2365745  -11.23657446
 -11.23599346  -1.14801213  -1.01318026  -1.01318016  -0.82234065
  -0.8223406   -0.70685462  -0.64323397  -0.61475826  -0.5854675
  -0.58546744  -0.49865845  -0.49151391  -0.49151389  -0.33332321
  -0.33332296   0.13733621   0.13733639   0.18344761   0.22042582
   0.22042585   0.25595819   0.25595822   0.27325878   0.35075638
   0.4376752    0.43767524   0.46988958   0.4698896    0.58547479
   0.59044727   0.67540838   0.68070194   0.713184     0.73223013
   0.73223022   0.7418007    0.74180072   0.74326444   0.74461861
   0.74461862   0.82326969   0.82326977   0.85435344   0.85435346
   0.89061683   0.89061687   0.91062068   0.98816931   0.99863862
   1.0491908    1.10611338   1.1061134    1.12558873   1.152053
   1.20348889   1.20348893   1.24524461   1.24524467   1.24587004
   1.24587005   1.31458561   1.31965491   1.31965494   1.47415486
   1.51740875   1.51740876   1.71850414   1.74423887   1.74423888
   1.76836955   1.81440376   1.87141545   1.87141548   1.900494
   1.90049404   1.90325101   1.95510445   1.95510448   1.96390903
   1.96483435   1.96483436   2.09217656   2.0921766    2.12975708
   2.14805491   2.14805494   2.16829532   2.16919425   2.16919427
   2.27107222   2.27107227   2.2900299    2.29002995   2.33788297
   2.49948446   2.56865776   2.72131486   2.76763179   2.7676318
   2.80221546   2.80221549   2.97451239   2.97451241   3.00692198
   3.14398803   3.28785617   3.28785618   4.04301516]
multiplicity <S^2> = 2.2815978e-08  2S+1 = 1
E1 = -713.6718904102527  Ecoul = 279.30977556971607
macro= 2  E= -230.722048863702  delta_E= -7.38964e-13  |g|= 7.97703e-06  1 KF 2 JK
    CPU time for cycle= 3      0.38 sec, wall time      0.46 sec
Canonicalize SCF orbitals
macro X = 3  E=-230.722048863702  |g|= 7.97703e-06  total 8 KF 26 JK
    CPU time for Second order SCF      6.73 sec, wall time      7.20 sec
converged SCF energy = -230.722048863702  <S^2> = 2.0881401e-08  2S+1 = 1
**** SCF Summaries ****
Total Energy =                        -230.722048863701843
Nuclear Repulsion Energy =             203.640065976834762
One-electron Energy =                 -713.671890410252672
Two-electron Energy =                  279.309775569716066
**** MO energy ****
                             alpha | beta                alpha | beta
MO #1   energy= -11.238321685315   | -11.2383215856003  occ= 1 | 1
MO #2   energy= -11.2377682336845  | -11.2377681038823  occ= 1 | 1
MO #3   energy= -11.2377681418405  | -11.2377680707979  occ= 1 | 1
MO #4   energy= -11.2365746169924  | -11.2365744958369  occ= 1 | 1
MO #5   energy= -11.2365745296881  | -11.2365744598758  occ= 1 | 1
MO #6   energy= -11.2359935578148  | -11.2359934617572  occ= 1 | 1
MO #7   energy= -1.14801232668545  | -1.14801212507459  occ= 1 | 1
MO #8   energy= -1.01318050918056  | -1.01318026376222  occ= 1 | 1
MO #9   energy= -1.01318039804467  | -1.01318016287549  occ= 1 | 1
MO #10  energy= -0.822340924403886 | -0.822340653826813 occ= 1 | 1
MO #11  energy= -0.822340860461106 | -0.822340597580083 occ= 1 | 1
MO #12  energy= -0.706854912255133 | -0.706854624393964 occ= 1 | 1
MO #13  energy= -0.643234151710966 | -0.643233966407455 occ= 1 | 1
MO #14  energy= -0.614758453853367 | -0.614758258223854 occ= 1 | 1
MO #15  energy= -0.58546758374358  | -0.585467500693592 occ= 1 | 1
MO #16  energy= -0.585467527989734 | -0.585467436737945 occ= 1 | 1
MO #17  energy= -0.498658525036819 | -0.498658454849175 occ= 1 | 1
MO #18  energy= -0.491513905140321 | -0.491513914176017 occ= 1 | 1
MO #19  energy= -0.491513877113872 | -0.491513886180578 occ= 1 | 1
MO #20  energy= -0.333323371795298 | -0.333323205719515 occ= 1 | 1
MO #21  energy= -0.333322988286726 | -0.333322961531321 occ= 1 | 1
MO #22  energy= 0.137336036638282  | 0.137336205102925  occ= 0 | 0
MO #23  energy= 0.137336329702714  | 0.137336391101309  occ= 0 | 0
MO #24  energy= 0.183447650190641  | 0.183447605816237  occ= 0 | 0
MO #25  energy= 0.220425760756864  | 0.220425818360386  occ= 0 | 0
MO #26  energy= 0.220425794733314  | 0.220425853056788  occ= 0 | 0
MO #27  energy= 0.255958141822272  | 0.255958193182895  occ= 0 | 0
MO #28  energy= 0.255958164710391  | 0.25595821557555   occ= 0 | 0
MO #29  energy= 0.27325878897904   | 0.273258779222507  occ= 0 | 0
MO #30  energy= 0.350756249194681  | 0.350756383796108  occ= 0 | 0
MO #31  energy= 0.437675213917429  | 0.437675195728594  occ= 0 | 0
MO #32  energy= 0.437675238836785  | 0.437675235452965  occ= 0 | 0
MO #33  energy= 0.469889631921078  | 0.469889581824088  occ= 0 | 0
MO #34  energy= 0.469889655371468  | 0.469889597881101  occ= 0 | 0
MO #35  energy= 0.585474838228905  | 0.585474791397727  occ= 0 | 0
MO #36  energy= 0.590447615213363  | 0.590447274240271  occ= 0 | 0
MO #37  energy= 0.675408533299076  | 0.675408375963621  occ= 0 | 0
MO #38  energy= 0.680701896137588  | 0.680701942694465  occ= 0 | 0
MO #39  energy= 0.713183970352538  | 0.713183998748358  occ= 0 | 0
MO #40  energy= 0.732230100164194  | 0.732230133916641  occ= 0 | 0
MO #41  energy= 0.732230211172171  | 0.732230219449505  occ= 0 | 0
MO #42  energy= 0.741800769374794  | 0.741800703607329  occ= 0 | 0
MO #43  energy= 0.741800788788412  | 0.741800721953796  occ= 0 | 0
MO #44  energy= 0.743264448508969  | 0.743264437432894  occ= 0 | 0
MO #45  energy= 0.744618707582505  | 0.744618613187905  occ= 0 | 0
MO #46  energy= 0.744618730357588  | 0.74461861700051   occ= 0 | 0
MO #47  energy= 0.823269623575753  | 0.823269686803551  occ= 0 | 0
MO #48  energy= 0.823269757668325  | 0.823269774985232  occ= 0 | 0
MO #49  energy= 0.854353337036269  | 0.854353435304331  occ= 0 | 0
MO #50  energy= 0.854353356543226  | 0.854353456080922  occ= 0 | 0
MO #51  energy= 0.890616638776837  | 0.890616825210935  occ= 0 | 0
MO #52  energy= 0.890616669848993  | 0.890616865383321  occ= 0 | 0
MO #53  energy= 0.910620639162507  | 0.910620684173496  occ= 0 | 0
MO #54  energy= 0.988169037011096  | 0.988169307131236  occ= 0 | 0
MO #55  energy= 0.998638376165936  | 0.998638622522111  occ= 0 | 0
MO #56  energy= 1.04919069376877   | 1.0491907969352    occ= 0 | 0
MO #57  energy= 1.10611321645239   | 1.10611338151734   occ= 0 | 0
MO #58  energy= 1.10611322884229   | 1.10611340178446   occ= 0 | 0
MO #59  energy= 1.12558854208825   | 1.12558872591593   occ= 0 | 0
MO #60  energy= 1.15205296499354   | 1.15205300012761   occ= 0 | 0
MO #61  energy= 1.20348884164949   | 1.20348889060027   occ= 0 | 0
MO #62  energy= 1.20348886702733   | 1.20348892875386   occ= 0 | 0
MO #63  energy= 1.24524453398025   | 1.24524460577341   occ= 0 | 0
MO #64  energy= 1.24524459714223   | 1.24524467143775   occ= 0 | 0
MO #65  energy= 1.24587012234612   | 1.2458700353654    occ= 0 | 0
MO #66  energy= 1.24587013298805   | 1.24587005254672   occ= 0 | 0
MO #67  energy= 1.31458576025561   | 1.31458561460148   occ= 0 | 0
MO #68  energy= 1.3196548763781    | 1.31965490852749   occ= 0 | 0
MO #69  energy= 1.31965490951904   | 1.31965494115378   occ= 0 | 0
MO #70  energy= 1.47415486893497   | 1.47415485512704   occ= 0 | 0
MO #71  energy= 1.51740887103918   | 1.51740874832899   occ= 0 | 0
MO #72  energy= 1.51740888950547   | 1.51740876476623   occ= 0 | 0
MO #73  energy= 1.71850403769286   | 1.71850413944626   occ= 0 | 0
MO #74  energy= 1.74423889627179   | 1.74423886866247   occ= 0 | 0
MO #75  energy= 1.74423891488594   | 1.74423888287834   occ= 0 | 0
MO #76  energy= 1.76836964301694   | 1.7683695454348    occ= 0 | 0
MO #77  energy= 1.81440366221201   | 1.81440376363847   occ= 0 | 0
MO #78  energy= 1.87141550767897   | 1.87141544893265   occ= 0 | 0
MO #79  energy= 1.87141553654205   | 1.87141548008563   occ= 0 | 0
MO #80  energy= 1.90049399225928   | 1.90049400078929   occ= 0 | 0
MO #81  energy= 1.90049402750072   | 1.90049404487012   occ= 0 | 0
MO #82  energy= 1.90325119184951   | 1.90325100996709   occ= 0 | 0
MO #83  energy= 1.95510455032007   | 1.9551044512731    occ= 0 | 0
MO #84  energy= 1.95510458312234   | 1.95510448394701   occ= 0 | 0
MO #85  energy= 1.9639090586348    | 1.96390903345276   occ= 0 | 0
MO #86  energy= 1.96483442544531   | 1.96483434644302   occ= 0 | 0
MO #87  energy= 1.96483444044253   | 1.96483436432496   occ= 0 | 0
MO #88  energy= 2.09217653062394   | 2.09217656170869   occ= 0 | 0
MO #89  energy= 2.09217656410878   | 2.09217659722238   occ= 0 | 0
MO #90  energy= 2.129757220187     | 2.1297570818932    occ= 0 | 0
MO #91  energy= 2.14805484232789   | 2.14805491255335   occ= 0 | 0
MO #92  energy= 2.14805485906208   | 2.14805493504191   occ= 0 | 0
MO #93  energy= 2.16829540226645   | 2.16829532339684   occ= 0 | 0
MO #94  energy= 2.16919423064027   | 2.16919425479479   occ= 0 | 0
MO #95  energy= 2.16919424476233   | 2.16919427027337   occ= 0 | 0
MO #96  energy= 2.27107227063788   | 2.27107222278599   occ= 0 | 0
MO #97  energy= 2.27107230546174   | 2.27107227071209   occ= 0 | 0
MO #98  energy= 2.29002989830603   | 2.29002990357995   occ= 0 | 0
MO #99  energy= 2.29002993706878   | 2.29002994975909   occ= 0 | 0
MO #100 energy= 2.33788293005251   | 2.33788296770639   occ= 0 | 0
MO #101 energy= 2.49948436248267   | 2.49948445915811   occ= 0 | 0
MO #102 energy= 2.56865776432318   | 2.56865776315537   occ= 0 | 0
MO #103 energy= 2.72131485824802   | 2.7213148563604    occ= 0 | 0
MO #104 energy= 2.76763174944288   | 2.76763178614592   occ= 0 | 0
MO #105 energy= 2.76763176592295   | 2.76763180491687   occ= 0 | 0
MO #106 energy= 2.80221543477938   | 2.80221546142818   occ= 0 | 0
MO #107 energy= 2.80221546579052   | 2.8022154940438    occ= 0 | 0
MO #108 energy= 2.9745123724525    | 2.9745123942747    occ= 0 | 0
MO #109 energy= 2.97451239084993   | 2.97451241409138   occ= 0 | 0
MO #110 energy= 3.00692195602888   | 3.00692198233696   occ= 0 | 0
MO #111 energy= 3.14398802091695   | 3.14398802548936   occ= 0 | 0
MO #112 energy= 3.28785609304523   | 3.28785616676049   occ= 0 | 0
MO #113 energy= 3.28785610916012   | 3.28785618306563   occ= 0 | 0
MO #114 energy= 4.04301507966806   | 4.04301516465797   occ= 0 | 0
 ** MO coefficients (expansion on meta-Lowdin AOs) for alpha spin **
               #1        #2        #3        #4        #5       
  0 C 1s       0.40822   0.31350   0.48594  -0.30870   0.48679
  0 C 2s      -0.00045  -0.00004  -0.00007  -0.00029   0.00046
  0 C 3s      -0.00103  -0.00069  -0.00106   0.00051  -0.00080
  0 C 2px      0.00026  -0.00006  -0.00009   0.00013  -0.00020
  0 C 2py      0.00000  -0.00038   0.00024  -0.00023  -0.00015
  0 C 2pz      0.00000  -0.00000  -0.00000   0.00000  -0.00000
  0 C 3px      0.00017   0.00007   0.00011   0.00006  -0.00010
  0 C 3py      0.00000  -0.00034   0.00022  -0.00025  -0.00016
  0 C 3pz      0.00000   0.00000   0.00000  -0.00000   0.00000
  0 C 3dxy     0.00000  -0.00004   0.00003   0.00007   0.00005
  0 C 3dyz     0.00000   0.00000  -0.00000   0.00000   0.00000
  0 C 3dz^2   -0.00027  -0.00025  -0.00038   0.00037  -0.00058
  0 C 3dxz    -0.00000   0.00000   0.00000  -0.00000   0.00000
 0 C 3dx2-y2   0.00002  -0.00005  -0.00008   0.00003  -0.00005
  1 H 1s      -0.00045  -0.00026  -0.00040   0.00017  -0.00027
  1 H 2s      -0.00003  -0.00000  -0.00000  -0.00003   0.00005
  1 H 2px      0.00009   0.00007   0.00011  -0.00012   0.00019
  1 H 2py     -0.00000   0.00010  -0.00006   0.00011   0.00007
  1 H 2pz      0.00000   0.00000   0.00000  -0.00000   0.00000
  2 C 1s       0.40711   0.57619  -0.02778   0.57734   0.02467
  2 C 2s      -0.00045  -0.00008   0.00000   0.00055   0.00002
  2 C 3s      -0.00103  -0.00126   0.00006  -0.00095  -0.00004
  2 C 2px      0.00013  -0.00007  -0.00039  -0.00011  -0.00024
  2 C 2py      0.00022  -0.00008   0.00023  -0.00022   0.00013
  2 C 2pz     -0.00000  -0.00000   0.00000  -0.00000   0.00000
  2 C 3px      0.00009   0.00005  -0.00036  -0.00005  -0.00026
  2 C 3py      0.00015   0.00012   0.00020  -0.00011   0.00014
  2 C 3pz      0.00000   0.00000   0.00000   0.00000   0.00000
  2 C 3dxy     0.00001  -0.00008  -0.00002  -0.00006   0.00004
  2 C 3dyz     0.00000   0.00000  -0.00000   0.00000  -0.00000
  2 C 3dz^2   -0.00027  -0.00045   0.00002  -0.00069  -0.00003
  2 C 3dxz     0.00000   0.00000  -0.00000   0.00000  -0.00000
 2 C 3dx2-y2  -0.00001   0.00005  -0.00004   0.00003   0.00008
  3 H 1s      -0.00045  -0.00048   0.00002  -0.00032  -0.00001
  3 H 2s      -0.00003  -0.00000   0.00000   0.00006   0.00000
  3 H 2px      0.00005   0.00007   0.00010   0.00011   0.00011
  3 H 2py      0.00008   0.00011  -0.00007   0.00020  -0.00006
  3 H 2pz      0.00000   0.00000  -0.00000   0.00000  -0.00000
  4 C 1s       0.40799   0.26546  -0.51385  -0.26589  -0.51134
  4 C 2s      -0.00045  -0.00004   0.00007  -0.00025  -0.00049
  4 C 3s      -0.00103  -0.00058   0.00113   0.00044   0.00084
  4 C 2px     -0.00013  -0.00032  -0.00023  -0.00027   0.00000
  4 C 2py      0.00022  -0.00024  -0.00002  -0.00003   0.00025
  4 C 2pz      0.00000   0.00000  -0.00000   0.00000  -0.00000
  4 C 3px     -0.00009  -0.00034  -0.00010  -0.00025   0.00007
  4 C 3py      0.00015  -0.00013  -0.00019  -0.00008   0.00016
  4 C 3pz      0.00000   0.00000   0.00000   0.00000   0.00000
  4 C 3dxy    -0.00001   0.00002  -0.00009   0.00001  -0.00007
  4 C 3dyz     0.00000   0.00000  -0.00000  -0.00000  -0.00000
  4 C 3dz^2   -0.00027  -0.00021   0.00041   0.00032   0.00061
  4 C 3dxz     0.00000   0.00000   0.00000   0.00000   0.00000
 4 C 3dx2-y2  -0.00001   0.00006  -0.00002  -0.00008   0.00001
  5 H 1s      -0.00045  -0.00022   0.00043   0.00015   0.00029
  5 H 2s      -0.00003  -0.00000   0.00000  -0.00003  -0.00006
  5 H 2px     -0.00005   0.00006   0.00011   0.00015   0.00005
  5 H 2py      0.00008   0.00011  -0.00007  -0.00003  -0.00020
  5 H 2pz     -0.00000  -0.00000  -0.00000  -0.00000  -0.00000
  6 C 1s       0.40825  -0.31107  -0.48525  -0.31107   0.48750
  6 C 2s      -0.00045   0.00004   0.00007  -0.00029   0.00046
  6 C 3s      -0.00103   0.00068   0.00106   0.00051  -0.00080
  6 C 2px     -0.00026  -0.00006  -0.00009  -0.00013   0.00020
  6 C 2py      0.00000  -0.00038   0.00024   0.00023   0.00015
  6 C 2pz      0.00000  -0.00000  -0.00000  -0.00000  -0.00000
  6 C 3px     -0.00017   0.00007   0.00011  -0.00006   0.00010
  6 C 3py      0.00000  -0.00034   0.00022   0.00025   0.00016
  6 C 3pz     -0.00000  -0.00000   0.00000  -0.00000  -0.00000
  6 C 3dxy    -0.00000   0.00004  -0.00003   0.00007   0.00005
  6 C 3dyz     0.00000  -0.00000  -0.00000   0.00000  -0.00000
  6 C 3dz^2   -0.00027   0.00025   0.00038   0.00037  -0.00058
  6 C 3dxz     0.00000  -0.00000  -0.00000  -0.00000   0.00000
 6 C 3dx2-y2   0.00002   0.00005   0.00008   0.00003  -0.00005
  7 H 1s      -0.00046   0.00026   0.00040   0.00017  -0.00027
  7 H 2s      -0.00003   0.00000   0.00000  -0.00003   0.00005
  7 H 2px     -0.00009   0.00007   0.00011   0.00012  -0.00019
  7 H 2py     -0.00000   0.00010  -0.00006  -0.00011  -0.00007
  7 H 2pz     -0.00000  -0.00000   0.00000  -0.00000  -0.00000
  8 C 1s       0.40942  -0.57721   0.02755   0.57626   0.02489
  8 C 2s      -0.00045   0.00008  -0.00000   0.00055   0.00002
  8 C 3s      -0.00103   0.00126  -0.00006  -0.00094  -0.00004
  8 C 2px     -0.00013  -0.00007  -0.00039   0.00011   0.00024
  8 C 2py     -0.00022  -0.00008   0.00023   0.00022  -0.00013
  8 C 2pz     -0.00000  -0.00000   0.00000  -0.00000  -0.00000
  8 C 3px     -0.00009   0.00005  -0.00036   0.00005   0.00026
  8 C 3py     -0.00015   0.00012   0.00020   0.00011  -0.00014
  8 C 3pz     -0.00000   0.00000   0.00000  -0.00000  -0.00000
  8 C 3dxy     0.00001   0.00009   0.00002  -0.00006   0.00004
  8 C 3dyz    -0.00000   0.00000  -0.00000  -0.00000  -0.00000
  8 C 3dz^2   -0.00027   0.00046  -0.00002  -0.00069  -0.00003
  8 C 3dxz    -0.00000   0.00000   0.00000  -0.00000  -0.00000
 8 C 3dx2-y2  -0.00001  -0.00005   0.00004   0.00003   0.00008
  9 H 1s      -0.00046   0.00048  -0.00002  -0.00032  -0.00001
  9 H 2s      -0.00003   0.00000  -0.00000   0.00006   0.00000
  9 H 2px     -0.00005   0.00007   0.00010  -0.00011  -0.00011
  9 H 2py     -0.00008   0.00011  -0.00007  -0.00020   0.00006
  9 H 2pz     -0.00000  -0.00000  -0.00000  -0.00000   0.00000
 10 C 1s       0.40847  -0.26328   0.51265  -0.26803  -0.51252
 10 C 2s      -0.00045   0.00004  -0.00007  -0.00025  -0.00049
 10 C 3s      -0.00103   0.00058  -0.00112   0.00044   0.00084
 10 C 2px      0.00013  -0.00032  -0.00023   0.00027  -0.00000
 10 C 2py     -0.00022  -0.00024  -0.00002   0.00002  -0.00025
 10 C 2pz     -0.00000   0.00000  -0.00000   0.00000   0.00000
 10 C 3px      0.00009  -0.00034  -0.00011   0.00025  -0.00007
 10 C 3py     -0.00015  -0.00013  -0.00019   0.00008  -0.00016
 10 C 3pz      0.00000  -0.00000   0.00000  -0.00000  -0.00000
 10 C 3dxy    -0.00001  -0.00002   0.00009   0.00001  -0.00007
 10 C 3dyz     0.00000   0.00000   0.00000   0.00000   0.00000
 10 C 3dz^2   -0.00027   0.00021  -0.00040   0.00032   0.00061
 10 C 3dxz     0.00000  -0.00000   0.00000   0.00000   0.00000
10 C 3dx2-y2  -0.00001  -0.00006   0.00002  -0.00008   0.00001
 11 H 1s      -0.00046   0.00022  -0.00043   0.00015   0.00029
 11 H 2s      -0.00003   0.00000  -0.00000  -0.00003  -0.00006
 11 H 2px      0.00005   0.00006   0.00011  -0.00015  -0.00005
 11 H 2py     -0.00008   0.00011  -0.00007   0.00003   0.00020
 11 H 2pz      0.00000  -0.00000   0.00000  -0.00000  -0.00000
               #6        #7        #8        #9        #10      
  0 C 1s      -0.40825   0.00052   0.00011  -0.00032   0.00001
  0 C 2s      -0.00056   0.35914   0.14255  -0.43813   0.11768
  0 C 3s       0.00052  -0.03177  -0.00998   0.03066  -0.00717
  0 C 2px      0.00015  -0.14645  -0.01130   0.03474   0.05420
  0 C 2py     -0.00000  -0.00000   0.26012   0.08464  -0.35082
  0 C 2pz      0.00000   0.00000   0.00000   0.00000  -0.00000
  0 C 3px      0.00021   0.01865  -0.00273   0.00839  -0.00730
  0 C 3py     -0.00000   0.00000  -0.01921  -0.00625   0.03443
  0 C 3pz     -0.00000  -0.00000  -0.00000   0.00000   0.00000
  0 C 3dxy     0.00000   0.00000  -0.01217  -0.00396   0.01868
  0 C 3dyz    -0.00000   0.00000  -0.00000  -0.00000   0.00000
  0 C 3dz^2    0.00057  -0.01830  -0.00702   0.02156  -0.00525
  0 C 3dxz    -0.00000   0.00000   0.00000   0.00000  -0.00000
 0 C 3dx2-y2   0.00001  -0.00744  -0.00087   0.00266   0.00245
  1 H 1s       0.00019   0.11897   0.06302  -0.19369   0.08959
  1 H 2s      -0.00004  -0.01767  -0.01002   0.03081  -0.01308
  1 H 2px     -0.00021  -0.00500  -0.00374   0.01148  -0.00547
  1 H 2py      0.00000   0.00000  -0.00297  -0.00097   0.00562
  1 H 2pz     -0.00000   0.00000   0.00000   0.00000  -0.00000
  2 C 1s       0.40934   0.00052   0.00033  -0.00007  -0.00002
  2 C 2s       0.00056   0.35914   0.45069  -0.09561  -0.31948
  2 C 3s      -0.00052  -0.03177  -0.03154   0.00669   0.01946
  2 C 2px     -0.00008  -0.07322  -0.06704  -0.22796  -0.12258
  2 C 2py     -0.00013  -0.12683  -0.00257   0.14037  -0.09913
  2 C 2pz     -0.00000  -0.00000   0.00000  -0.00000  -0.00000
  2 C 3px     -0.00010   0.00932  -0.00068   0.01803   0.01471
  2 C 3py     -0.00018   0.01615  -0.00957  -0.00830   0.01437
  2 C 3pz      0.00000  -0.00000  -0.00000  -0.00000   0.00000
  2 C 3dxy    -0.00001  -0.00644  -0.00105   0.00677  -0.00425
  2 C 3dyz     0.00000   0.00000   0.00000   0.00000  -0.00000
  2 C 3dz^2   -0.00057  -0.01830  -0.02218   0.00471   0.01426
  2 C 3dxz    -0.00000   0.00000   0.00000   0.00000   0.00000
 2 C 3dx2-y2   0.00000   0.00372   0.00367   0.01055   0.00593
  3 H 1s      -0.00019   0.11897   0.19924  -0.04227  -0.24320
  3 H 2s       0.00004  -0.01767  -0.03169   0.00672   0.03551
  3 H 2px      0.00011  -0.00250  -0.00535   0.00390   0.00821
  3 H 2py      0.00018  -0.00433  -0.01056   0.00064   0.01241
  3 H 2pz      0.00000  -0.00000  -0.00000   0.00000   0.00000
  4 C 1s      -0.40847   0.00052   0.00023   0.00025   0.00001
  4 C 2s      -0.00056   0.35914   0.30815   0.34252   0.20178
  4 C 3s       0.00052  -0.03177  -0.02156  -0.02397  -0.01229
  4 C 2px     -0.00008   0.07322   0.18833  -0.14486  -0.30127
  4 C 2py      0.00013  -0.12683   0.08051  -0.11500  -0.06663
  4 C 2pz      0.00000   0.00000   0.00000   0.00000   0.00000
  4 C 3px     -0.00010  -0.00932  -0.01006   0.01498   0.03126
  4 C 3py      0.00018   0.01615  -0.01262   0.00108   0.00361
  4 C 3pz      0.00000  -0.00000  -0.00000  -0.00000   0.00000
  4 C 3dxy    -0.00001   0.00644  -0.00314   0.00608   0.00420
  4 C 3dyz    -0.00000   0.00000   0.00000  -0.00000  -0.00000
  4 C 3dz^2    0.00057  -0.01830  -0.01517  -0.01686  -0.00900
  4 C 3dxz     0.00000  -0.00000   0.00000  -0.00000  -0.00000
 4 C 3dx2-y2  -0.00000   0.00372   0.00918  -0.00637  -0.01567
  5 H 1s       0.00019   0.11897   0.13623   0.15142   0.15360
  5 H 2s      -0.00004  -0.01767  -0.02167  -0.02408  -0.02243
  5 H 2px      0.00011   0.00250   0.00203   0.00630   0.00877
  5 H 2py     -0.00018  -0.00433  -0.00816  -0.00673  -0.00577
  5 H 2pz     -0.00000   0.00000  -0.00000  -0.00000  -0.00000
  6 C 1s       0.40826   0.00052  -0.00011   0.00032   0.00001
  6 C 2s       0.00056   0.35914  -0.14254   0.43811   0.11769
  6 C 3s      -0.00052  -0.03177   0.00998  -0.03066  -0.00717
  6 C 2px      0.00015   0.14645  -0.01131   0.03475  -0.05420
  6 C 2py      0.00000  -0.00000   0.26013   0.08464   0.35081
  6 C 2pz      0.00000   0.00000  -0.00000   0.00000   0.00000
  6 C 3px      0.00021  -0.01865  -0.00273   0.00839   0.00730
  6 C 3py      0.00000   0.00000  -0.01921  -0.00625  -0.03443
  6 C 3pz      0.00000  -0.00000  -0.00000  -0.00000   0.00000
  6 C 3dxy     0.00000  -0.00000   0.01217   0.00396   0.01868
  6 C 3dyz    -0.00000   0.00000   0.00000   0.00000   0.00000
  6 C 3dz^2   -0.00057  -0.01830   0.00702  -0.02156  -0.00525
  6 C 3dxz     0.00000   0.00000  -0.00000   0.00000   0.00000
 6 C 3dx2-y2  -0.00001  -0.00744   0.00087  -0.00266   0.00245
  7 H 1s      -0.00019   0.11897  -0.06302   0.19368   0.08959
  7 H 2s       0.00004  -0.01767   0.01002  -0.03081  -0.01308
  7 H 2px     -0.00021   0.00500  -0.00374   0.01148   0.00547
  7 H 2py     -0.00000   0.00000  -0.00297  -0.00097  -0.00562
  7 H 2pz      0.00000  -0.00000   0.00000   0.00000  -0.00000
  8 C 1s      -0.40711   0.00052  -0.00033   0.00007  -0.00002
  8 C 2s      -0.00056   0.35914  -0.45070   0.09561  -0.31946
  8 C 3s       0.00052  -0.03177   0.03154  -0.00669   0.01946
  8 C 2px     -0.00008   0.07322  -0.06703  -0.22795   0.12258
  8 C 2py     -0.00013   0.12683  -0.00257   0.14036   0.09913
  8 C 2pz     -0.00000  -0.00000   0.00000  -0.00000  -0.00000
  8 C 3px     -0.00010  -0.00932  -0.00068   0.01803  -0.01471
  8 C 3py     -0.00018  -0.01615  -0.00957  -0.00830  -0.01437
  8 C 3pz      0.00000  -0.00000  -0.00000  -0.00000  -0.00000
  8 C 3dxy     0.00001  -0.00644   0.00105  -0.00676  -0.00425
  8 C 3dyz     0.00000   0.00000  -0.00000  -0.00000  -0.00000
  8 C 3dz^2    0.00056  -0.01830   0.02218  -0.00471   0.01425
  8 C 3dxz     0.00000   0.00000   0.00000   0.00000   0.00000
 8 C 3dx2-y2  -0.00000   0.00372  -0.00367  -0.01055   0.00593
  9 H 1s       0.00018   0.11897  -0.19925   0.04227  -0.24319
  9 H 2s      -0.00004  -0.01767   0.03169  -0.00672   0.03551
  9 H 2px      0.00010   0.00250  -0.00535   0.00390  -0.00821
  9 H 2py      0.00018   0.00433  -0.01056   0.00064  -0.01241
  9 H 2pz     -0.00000   0.00000   0.00000  -0.00000  -0.00000
 10 C 1s       0.40804   0.00052  -0.00023  -0.00025   0.00001
 10 C 2s       0.00055   0.35914  -0.30814  -0.34250   0.20179
 10 C 3s      -0.00052  -0.03177   0.02156   0.02397  -0.01229
 10 C 2px     -0.00008  -0.07322   0.18834  -0.14487   0.30126
 10 C 2py      0.00013   0.12683   0.08052  -0.11501   0.06662
 10 C 2pz     -0.00000   0.00000   0.00000   0.00000   0.00000
 10 C 3px     -0.00010   0.00932  -0.01006   0.01498  -0.03126
 10 C 3py      0.00018  -0.01615  -0.01262   0.00108  -0.00361
 10 C 3pz      0.00000   0.00000   0.00000   0.00000   0.00000
 10 C 3dxy     0.00001   0.00644   0.00314  -0.00608   0.00420
 10 C 3dyz    -0.00000   0.00000  -0.00000   0.00000  -0.00000
 10 C 3dz^2   -0.00057  -0.01830   0.01517   0.01686  -0.00900
 10 C 3dxz    -0.00000  -0.00000  -0.00000   0.00000  -0.00000
10 C 3dx2-y2   0.00000   0.00372  -0.00918   0.00637  -0.01567
 11 H 1s      -0.00019   0.11897  -0.13622  -0.15141   0.15361
 11 H 2s       0.00004  -0.01767   0.02167   0.02408  -0.02243
 11 H 2px      0.00010  -0.00250   0.00203   0.00630  -0.00877
 11 H 2py     -0.00018   0.00433  -0.00816  -0.00673   0.00577
 11 H 2pz      0.00000   0.00000   0.00000  -0.00000   0.00000
               #11       #12       #13       #14       #15      
  0 C 1s      -0.00001   0.00013   0.00004   0.00000   0.00007
  0 C 2s      -0.30094   0.06176  -0.18321   0.00000  -0.01163
  0 C 3s       0.01833   0.00387   0.00502  -0.00000  -0.00001
  0 C 2px     -0.13861   0.33203  -0.23458   0.00000   0.12829
  0 C 2py     -0.13719   0.00000   0.00000   0.40626   0.10251
  0 C 2pz     -0.00000   0.00000   0.00000   0.00000  -0.00000
  0 C 3px      0.01865  -0.03440   0.01155  -0.00000  -0.00574
  0 C 3py      0.01346  -0.00000  -0.00000  -0.03503  -0.00348
  0 C 3pz     -0.00000  -0.00000  -0.00000   0.00000   0.00000
  0 C 3dxy     0.00730  -0.00000  -0.00000  -0.01927  -0.01065
  0 C 3dyz    -0.00000   0.00000   0.00000  -0.00000   0.00000
  0 C 3dz^2    0.01343  -0.00005   0.00497  -0.00000   0.00011
  0 C 3dxz     0.00000  -0.00000  -0.00000  -0.00000   0.00000
 0 C 3dx2-y2  -0.00626   0.00885  -0.01292   0.00000   0.00414
  1 H 1s      -0.22909   0.22425  -0.27748   0.00000   0.08731
  1 H 2s       0.03345  -0.03042   0.02248  -0.00000  -0.00824
  1 H 2px      0.01399  -0.01124   0.01482  -0.00000  -0.00373
  1 H 2py      0.00220  -0.00000  -0.00000  -0.00461  -0.00176
  1 H 2pz     -0.00000   0.00000  -0.00000   0.00000  -0.00000
  2 C 1s       0.00000   0.00013  -0.00004   0.00000  -0.00019
  2 C 2s       0.04855   0.06176   0.18321   0.00000   0.02940
  2 C 3s      -0.00296   0.00387  -0.00502  -0.00000   0.00003
  2 C 2px     -0.31133   0.16601   0.11729   0.35183  -0.22849
  2 C 2py      0.20557   0.28753   0.20316  -0.20313  -0.24243
  2 C 2pz      0.00000   0.00000   0.00000  -0.00000  -0.00000
  2 C 3px      0.03015  -0.01720  -0.00578  -0.03034   0.00950
  2 C 3py     -0.02088  -0.02979  -0.01001   0.01752   0.01126
  2 C 3pz      0.00000  -0.00000  -0.00000  -0.00000   0.00000
  2 C 3dxy     0.01079   0.00767   0.01119  -0.00963  -0.00508
  2 C 3dyz     0.00000  -0.00000  -0.00000  -0.00000   0.00000
  2 C 3dz^2   -0.00217  -0.00005  -0.00497   0.00000  -0.00027
  2 C 3dxz    -0.00000  -0.00000  -0.00000   0.00000   0.00000
 2 C 3dx2-y2   0.01667  -0.00443  -0.00646  -0.01669   0.01213
  3 H 1s       0.03696   0.22424   0.27749   0.00000  -0.22063
  3 H 2s      -0.00540  -0.03042  -0.02249   0.00000   0.02082
  3 H 2px      0.00404  -0.00562  -0.00741  -0.00399   0.00585
  3 H 2py     -0.00494  -0.00973  -0.01283   0.00230   0.00751
  3 H 2pz      0.00000  -0.00000  -0.00000  -0.00000   0.00000
  4 C 1s       0.00001   0.00013   0.00004  -0.00000  -0.00026
  4 C 2s       0.25239   0.06176  -0.18321  -0.00000   0.04104
  4 C 3s      -0.01537   0.00387   0.00502   0.00000   0.00004
  4 C 2px      0.14559  -0.16601   0.11729  -0.35183   0.24864
  4 C 2py      0.21828   0.28754  -0.20315  -0.20313  -0.37894
  4 C 2pz      0.00000   0.00000   0.00000  -0.00000  -0.00000
  4 C 3px     -0.01217   0.01720  -0.00578   0.03034  -0.01088
  4 C 3py     -0.02509  -0.02979   0.01000   0.01752   0.01709
  4 C 3pz     -0.00000  -0.00000   0.00000   0.00000   0.00000
  4 C 3dxy    -0.01081  -0.00767   0.01119   0.00963   0.01131
  4 C 3dyz     0.00000  -0.00000  -0.00000  -0.00000   0.00000
  4 C 3dz^2   -0.01126  -0.00005   0.00497   0.00000  -0.00038
  4 C 3dxz     0.00000   0.00000   0.00000  -0.00000  -0.00000
 4 C 3dx2-y2   0.00822  -0.00443   0.00646  -0.01669   0.00963
  5 H 1s       0.19213   0.22425  -0.27748  -0.00000  -0.30794
  5 H 2s      -0.02805  -0.03042   0.02248   0.00000   0.02906
  5 H 2px      0.00260   0.00562  -0.00741   0.00399  -0.00696
  5 H 2py     -0.01204  -0.00973   0.01283   0.00230   0.01117
  5 H 2pz     -0.00000  -0.00000  -0.00000  -0.00000  -0.00000
  6 C 1s      -0.00001   0.00013  -0.00004   0.00000  -0.00007
  6 C 2s      -0.30095   0.06176   0.18321   0.00000   0.01163
  6 C 3s       0.01833   0.00387  -0.00502  -0.00000   0.00001
  6 C 2px      0.13860  -0.33202  -0.23459  -0.00000   0.12829
  6 C 2py      0.13719   0.00000  -0.00000   0.40626   0.10252
  6 C 2pz     -0.00000  -0.00000   0.00000   0.00000  -0.00000
  6 C 3px     -0.01865   0.03440   0.01155   0.00000  -0.00574
  6 C 3py     -0.01346   0.00000   0.00000  -0.03503  -0.00348
  6 C 3pz     -0.00000  -0.00000   0.00000   0.00000  -0.00000
  6 C 3dxy     0.00730   0.00000  -0.00000   0.01927   0.01065
  6 C 3dyz    -0.00000   0.00000   0.00000   0.00000  -0.00000
  6 C 3dz^2    0.01343  -0.00005  -0.00497  -0.00000  -0.00011
  6 C 3dxz     0.00000  -0.00000  -0.00000   0.00000   0.00000
 6 C 3dx2-y2  -0.00626   0.00885   0.01292   0.00000  -0.00414
  7 H 1s      -0.22910   0.22424   0.27749   0.00000  -0.08731
  7 H 2s       0.03345  -0.03042  -0.02249   0.00000   0.00824
  7 H 2px     -0.01399   0.01124   0.01482   0.00000  -0.00373
  7 H 2py     -0.00220   0.00000   0.00000  -0.00461  -0.00176
  7 H 2pz     -0.00000   0.00000   0.00000  -0.00000  -0.00000
  8 C 1s       0.00000   0.00013   0.00004   0.00000   0.00019
  8 C 2s       0.04855   0.06176  -0.18321   0.00000  -0.02940
  8 C 3s      -0.00296   0.00387   0.00502   0.00000  -0.00003
  8 C 2px      0.31134  -0.16601   0.11729   0.35183  -0.22849
  8 C 2py     -0.20557  -0.28755   0.20315  -0.20313  -0.24244
  8 C 2pz      0.00000   0.00000  -0.00000  -0.00000   0.00000
  8 C 3px     -0.03015   0.01720  -0.00578  -0.03034   0.00950
  8 C 3py      0.02088   0.02979  -0.01000   0.01752   0.01126
  8 C 3pz      0.00000  -0.00000  -0.00000  -0.00000  -0.00000
  8 C 3dxy     0.01079   0.00767  -0.01119   0.00963   0.00508
  8 C 3dyz     0.00000  -0.00000  -0.00000   0.00000   0.00000
  8 C 3dz^2   -0.00217  -0.00005   0.00497   0.00000   0.00027
  8 C 3dxz    -0.00000  -0.00000   0.00000  -0.00000  -0.00000
 8 C 3dx2-y2   0.01667  -0.00443   0.00646   0.01669  -0.01213
  9 H 1s       0.03696   0.22425  -0.27748  -0.00000   0.22064
  9 H 2s      -0.00540  -0.03042   0.02248  -0.00000  -0.02082
  9 H 2px     -0.00404   0.00562  -0.00741  -0.00399   0.00585
  9 H 2py      0.00494   0.00973  -0.01283   0.00230   0.00751
  9 H 2pz     -0.00000   0.00000  -0.00000  -0.00000  -0.00000
 10 C 1s       0.00001   0.00013  -0.00004  -0.00000   0.00026
 10 C 2s       0.25240   0.06176   0.18321  -0.00000  -0.04103
 10 C 3s      -0.01537   0.00387  -0.00502   0.00000  -0.00004
 10 C 2px     -0.14558   0.16601   0.11729  -0.35183   0.24864
 10 C 2py     -0.21828  -0.28754  -0.20316  -0.20313  -0.37893
 10 C 2pz      0.00000  -0.00000   0.00000   0.00000   0.00000
 10 C 3px      0.01217  -0.01720  -0.00578   0.03034  -0.01088
 10 C 3py      0.02509   0.02979   0.01001   0.01752   0.01709
 10 C 3pz      0.00000  -0.00000   0.00000  -0.00000  -0.00000
 10 C 3dxy    -0.01081  -0.00767  -0.01119  -0.00963  -0.01131
 10 C 3dyz     0.00000   0.00000  -0.00000   0.00000   0.00000
 10 C 3dz^2   -0.01126  -0.00005  -0.00497   0.00000   0.00038
 10 C 3dxz     0.00000   0.00000  -0.00000   0.00000  -0.00000
10 C 3dx2-y2   0.00822  -0.00443  -0.00646   0.01669  -0.00963
 11 H 1s       0.19214   0.22424   0.27749  -0.00000   0.30794
 11 H 2s      -0.02805  -0.03042  -0.02249   0.00000  -0.02906
 11 H 2px     -0.00260  -0.00562  -0.00741   0.00399  -0.00696
 11 H 2py      0.01204   0.00973   0.01283   0.00230   0.01117
 11 H 2pz      0.00000  -0.00000  -0.00000  -0.00000  -0.00000
               #16       #17       #18       #19       #20      
  0 C 1s       0.00026  -0.00000  -0.00014   0.00008   0.00000
  0 C 2s      -0.04067   0.00000  -0.00619   0.00359  -0.00000
  0 C 3s      -0.00004   0.00000  -0.00329   0.00191   0.00000
  0 C 2px      0.44842  -0.00000  -0.28848   0.16714  -0.00000
  0 C 2py     -0.02933  -0.00000   0.17308   0.29874  -0.00000
  0 C 2pz      0.00000   0.40790  -0.00000   0.00000  -0.25334
  0 C 3px     -0.02006  -0.00000   0.00447  -0.00259   0.00000
  0 C 3py      0.00100   0.00000  -0.00882  -0.01522   0.00000
  0 C 3pz     -0.00000   0.00377  -0.00000   0.00000  -0.02072
  0 C 3dxy     0.00305   0.00000  -0.00890  -0.01536  -0.00000
  0 C 3dyz    -0.00000  -0.00000   0.00000  -0.00000  -0.02085
  0 C 3dz^2    0.00038  -0.00000  -0.00011   0.00006  -0.00000
  0 C 3dxz    -0.00000  -0.01641   0.00000  -0.00000   0.00511
 0 C 3dx2-y2   0.01448  -0.00000  -0.01577   0.00914   0.00000
  1 H 1s       0.30518  -0.00000  -0.27585   0.15982   0.00000
  1 H 2s      -0.02880   0.00000   0.00889  -0.00515   0.00000
  1 H 2px     -0.01304   0.00000   0.01156  -0.00670   0.00000
  1 H 2py      0.00050   0.00000  -0.00121  -0.00209   0.00000
  1 H 2pz     -0.00000   0.00308  -0.00000   0.00000  -0.00445
  2 C 1s       0.00020   0.00000  -0.00000  -0.00017  -0.00000
  2 C 2s      -0.03041   0.00000  -0.00001  -0.00715  -0.00000
  2 C 3s      -0.00003  -0.00000  -0.00001  -0.00380   0.00000
  2 C 2px      0.10346   0.00000   0.29874  -0.16716  -0.00000
  2 C 2py      0.32744   0.00000  -0.17306  -0.28847  -0.00000
  2 C 2pz      0.00000   0.40788  -0.00000   0.00000  -0.57344
  2 C 3px     -0.00532  -0.00000  -0.01523   0.00261  -0.00000
  2 C 3py     -0.01425  -0.00000   0.00880   0.00446  -0.00000
  2 C 3pz     -0.00000   0.00377   0.00000   0.00000  -0.04689
  2 C 3dxy     0.01323  -0.00000  -0.00890  -0.01577   0.00000
  2 C 3dyz    -0.00000  -0.01422   0.00000   0.00000   0.00924
  2 C 3dz^2    0.00028  -0.00000  -0.00000  -0.00013   0.00000
  2 C 3dxz    -0.00000  -0.00821  -0.00000   0.00000   0.00713
 2 C 3dx2-y2   0.00125  -0.00000  -0.01536   0.00913  -0.00000
  3 H 1s       0.22820   0.00000  -0.00048  -0.31881   0.00000
  3 H 2s      -0.02154  -0.00000   0.00002   0.01028   0.00000
  3 H 2px     -0.00377  -0.00000  -0.00208   0.00668   0.00000
  3 H 2py     -0.00908  -0.00000   0.00123   0.01156   0.00000
  3 H 2pz     -0.00000   0.00308   0.00000   0.00000  -0.01008
  4 C 1s      -0.00007  -0.00000   0.00014   0.00008   0.00000
  4 C 2s       0.01026  -0.00000   0.00620   0.00357  -0.00000
  4 C 3s       0.00001   0.00000   0.00330   0.00190  -0.00000
  4 C 2px     -0.03303  -0.00000  -0.29360   0.17604   0.00000
  4 C 2py     -0.14968  -0.00000   0.16418   0.29362  -0.00000
  4 C 2pz      0.00000   0.40790  -0.00000   0.00000  -0.32015
  4 C 3px      0.00051   0.00000   0.00984  -0.01192  -0.00000
  4 C 3py      0.00614   0.00000   0.00051  -0.00986   0.00000
  4 C 3pz     -0.00000   0.00377  -0.00000   0.00000  -0.02618
  4 C 3dxy     0.00854   0.00000  -0.00925  -0.01556  -0.00000
  4 C 3dyz    -0.00000  -0.01421  -0.00000  -0.00000  -0.00406
  4 C 3dz^2   -0.00010  -0.00000   0.00011   0.00006  -0.00000
  4 C 3dxz     0.00000   0.00821   0.00000   0.00000  -0.01994
 4 C 3dx2-y2  -0.00748  -0.00000  -0.01557   0.00879  -0.00000
  5 H 1s      -0.07698  -0.00000   0.27634   0.15898   0.00000
  5 H 2s       0.00727  -0.00000  -0.00891  -0.00512   0.00000
  5 H 2px     -0.00011   0.00000   0.00683   0.00152  -0.00000
  5 H 2py      0.00374   0.00000  -0.00942  -0.00681   0.00000
  5 H 2pz      0.00000   0.00308  -0.00000   0.00000  -0.00563
  6 C 1s      -0.00026  -0.00000  -0.00014   0.00008   0.00000
  6 C 2s       0.04067   0.00000  -0.00619   0.00359  -0.00000
  6 C 3s       0.00004   0.00000  -0.00329   0.00191  -0.00000
  6 C 2px      0.44842   0.00000   0.28848  -0.16714   0.00000
  6 C 2py     -0.02933   0.00000  -0.17308  -0.29873  -0.00000
  6 C 2pz      0.00000   0.40788  -0.00000   0.00000   0.25332
  6 C 3px     -0.02006  -0.00000  -0.00447   0.00259   0.00000
  6 C 3py      0.00100  -0.00000   0.00882   0.01522   0.00000
  6 C 3pz      0.00000   0.00377  -0.00000   0.00000   0.02071
  6 C 3dxy    -0.00305   0.00000  -0.00890  -0.01536   0.00000
  6 C 3dyz    -0.00000  -0.00000  -0.00000   0.00000  -0.02086
  6 C 3dz^2   -0.00038   0.00000  -0.00011   0.00006   0.00000
  6 C 3dxz     0.00000   0.01641  -0.00000   0.00000   0.00511
 6 C 3dx2-y2  -0.01448  -0.00000  -0.01577   0.00914   0.00000
  7 H 1s      -0.30517  -0.00000  -0.27586   0.15983   0.00000
  7 H 2s       0.02880  -0.00000   0.00889  -0.00515   0.00000
  7 H 2px     -0.01304  -0.00000  -0.01156   0.00670   0.00000
  7 H 2py      0.00050  -0.00000   0.00121   0.00209   0.00000
  7 H 2pz     -0.00000   0.00308  -0.00000   0.00000   0.00445
  8 C 1s      -0.00020   0.00000  -0.00000  -0.00017   0.00000
  8 C 2s       0.03041  -0.00000  -0.00001  -0.00715  -0.00000
  8 C 3s       0.00003  -0.00000  -0.00001  -0.00380  -0.00000
  8 C 2px      0.10347  -0.00000  -0.29874   0.16715   0.00000
  8 C 2py      0.32745  -0.00000   0.17307   0.28847   0.00000
  8 C 2pz     -0.00000   0.40790  -0.00000   0.00000   0.57349
  8 C 3px     -0.00532   0.00000   0.01523  -0.00261  -0.00000
  8 C 3py     -0.01425   0.00000  -0.00880  -0.00446   0.00000
  8 C 3pz      0.00000   0.00377  -0.00000  -0.00000   0.04690
  8 C 3dxy    -0.01323   0.00000  -0.00890  -0.01577   0.00000
  8 C 3dyz     0.00000   0.01421  -0.00000   0.00000   0.00923
  8 C 3dz^2   -0.00028  -0.00000  -0.00000  -0.00013  -0.00000
  8 C 3dxz    -0.00000   0.00821   0.00000   0.00000   0.00713
 8 C 3dx2-y2  -0.00125  -0.00000  -0.01536   0.00913  -0.00000
  9 H 1s      -0.22820   0.00000  -0.00049  -0.31880  -0.00000
  9 H 2s       0.02154   0.00000   0.00002   0.01028  -0.00000
  9 H 2px     -0.00377   0.00000   0.00208  -0.00668  -0.00000
  9 H 2py     -0.00908   0.00000  -0.00123  -0.01156   0.00000
  9 H 2pz     -0.00000   0.00308  -0.00000  -0.00000   0.01008
 10 C 1s       0.00007   0.00000   0.00014   0.00008   0.00000
 10 C 2s      -0.01026   0.00000   0.00620   0.00357   0.00000
 10 C 3s      -0.00001   0.00000   0.00330   0.00190   0.00000
 10 C 2px     -0.03303   0.00000   0.29360  -0.17603  -0.00000
 10 C 2py     -0.14968   0.00000  -0.16419  -0.29362  -0.00000
 10 C 2pz      0.00000   0.40788  -0.00000   0.00000   0.32012
 10 C 3px      0.00051  -0.00000  -0.00984   0.01192  -0.00000
 10 C 3py      0.00614  -0.00000  -0.00051   0.00986   0.00000
 10 C 3pz      0.00000   0.00377   0.00000   0.00000   0.02618
 10 C 3dxy    -0.00854  -0.00000  -0.00925  -0.01556  -0.00000
 10 C 3dyz    -0.00000   0.01422  -0.00000   0.00000  -0.00406
 10 C 3dz^2    0.00010  -0.00000   0.00011   0.00006   0.00000
 10 C 3dxz     0.00000  -0.00821  -0.00000   0.00000  -0.01994
10 C 3dx2-y2   0.00748  -0.00000  -0.01557   0.00878  -0.00000
 11 H 1s       0.07698  -0.00000   0.27634   0.15899  -0.00000
 11 H 2s      -0.00727  -0.00000  -0.00891  -0.00512  -0.00000
 11 H 2px     -0.00011  -0.00000  -0.00683  -0.00152  -0.00000
 11 H 2py      0.00374   0.00000   0.00942   0.00681   0.00000
 11 H 2pz      0.00000   0.00308  -0.00000   0.00000   0.00563
               #21       #22       #23       #24       #25      
  0 C 1s       0.00000  -0.00000  -0.00000   0.00019   0.00004
  0 C 2s      -0.00000   0.00000   0.00000  -0.12021  -0.03684
  0 C 3s      -0.00000   0.00000  -0.00000  -0.02629  -0.01470
  0 C 2px     -0.00000   0.00000   0.00000  -0.12311  -0.05420
  0 C 2py     -0.00000   0.00000   0.00000  -0.00000  -0.01175
  0 C 2pz      0.51594  -0.24235  -0.49161  -0.00000   0.00000
  0 C 3px      0.00000   0.00000   0.00000  -0.02059  -0.00244
  0 C 3py      0.00000  -0.00000   0.00000  -0.00000  -0.02141
  0 C 3pz      0.04219  -0.07223  -0.14652  -0.00000   0.00000
  0 C 3dxy     0.00000   0.00000   0.00000   0.00000   0.01686
  0 C 3dyz    -0.01024   0.05609  -0.02765   0.00000  -0.00000
  0 C 3dz^2   -0.00000  -0.00000  -0.00000   0.01105   0.01007
  0 C 3dxz    -0.01040  -0.01069  -0.02168  -0.00000   0.00000
 0 C 3dx2-y2   0.00000  -0.00000  -0.00000   0.00058  -0.00861
  1 H 1s       0.00000  -0.00000   0.00000   0.24994   0.08923
  1 H 2s      -0.00000  -0.00000  -0.00000   0.27061   0.13323
  1 H 2px     -0.00000  -0.00000   0.00000   0.01115   0.00801
  1 H 2py      0.00000  -0.00000   0.00000  -0.00000  -0.01320
  1 H 2pz      0.00907  -0.01830  -0.03712  -0.00000   0.00000
  2 C 1s       0.00000   0.00000  -0.00000   0.00019  -0.00009
  2 C 2s      -0.00000   0.00000   0.00000  -0.12021   0.08197
  2 C 3s       0.00000   0.00000   0.00000  -0.02629   0.03270
  2 C 2px     -0.00000   0.00000   0.00000  -0.06156   0.06820
  2 C 2py     -0.00000   0.00000   0.00000  -0.10662   0.09990
  2 C 2pz      0.03856   0.54697   0.03592   0.00000  -0.00000
  2 C 3px     -0.00000  -0.00000   0.00000  -0.01029   0.01709
  2 C 3py     -0.00000   0.00000   0.00000  -0.01783  -0.00359
  2 C 3pz      0.00315   0.16302   0.01071   0.00000  -0.00000
  2 C 3dxy     0.00000   0.00000  -0.00000   0.00050   0.01005
  2 C 3dyz    -0.01226   0.01883   0.03257   0.00000  -0.00000
  2 C 3dz^2    0.00000  -0.00000  -0.00000   0.01105  -0.02242
  2 C 3dxz     0.01969   0.01561  -0.05325  -0.00000   0.00000
 2 C 3dx2-y2   0.00000  -0.00000  -0.00000  -0.00029  -0.02089
  3 H 1s       0.00000  -0.00000  -0.00000   0.24994  -0.19855
  3 H 2s       0.00000  -0.00000  -0.00000   0.27060  -0.29646
  3 H 2px     -0.00000  -0.00000   0.00000   0.00557  -0.00006
  3 H 2py      0.00000  -0.00000  -0.00000   0.00966  -0.02056
  3 H 2pz      0.00068   0.04130   0.00271   0.00000  -0.00000
  4 C 1s       0.00000   0.00000  -0.00000   0.00019  -0.00013
  4 C 2s      -0.00000   0.00000   0.00000  -0.12021   0.11881
  4 C 3s      -0.00000   0.00000   0.00000  -0.02629   0.04740
  4 C 2px      0.00000  -0.00000  -0.00000   0.06156  -0.08970
  4 C 2py     -0.00000  -0.00000   0.00000  -0.10662   0.15008
  4 C 2pz     -0.47737  -0.30457   0.45569   0.00000  -0.00000
  4 C 3px     -0.00000  -0.00000  -0.00000   0.01029  -0.00811
  4 C 3py      0.00000   0.00000   0.00000  -0.01783   0.00442
  4 C 3pz     -0.03904  -0.09077   0.13581   0.00000  -0.00000
  4 C 3dxy    -0.00000   0.00000   0.00000  -0.00050  -0.02214
  4 C 3dyz     0.01481   0.01437   0.03478   0.00000  -0.00000
  4 C 3dz^2   -0.00000  -0.00000  -0.00000   0.01105  -0.03249
  4 C 3dxz     0.00639   0.05174   0.02005   0.00000  -0.00000
 4 C 3dx2-y2  -0.00000  -0.00000  -0.00000  -0.00029  -0.01716
  5 H 1s       0.00000  -0.00000  -0.00000   0.24994  -0.28778
  5 H 2s       0.00000  -0.00000  -0.00000   0.27061  -0.42969
  5 H 2px      0.00000  -0.00000   0.00000  -0.00557   0.01036
  5 H 2py     -0.00000  -0.00000  -0.00000   0.00966  -0.02387
  5 H 2pz     -0.00839  -0.02300   0.03441   0.00000  -0.00000
  6 C 1s       0.00000   0.00000   0.00000   0.00019  -0.00004
  6 C 2s      -0.00000   0.00000   0.00000  -0.12021   0.03684
  6 C 3s       0.00000  -0.00000   0.00000  -0.02629   0.01470
  6 C 2px      0.00000   0.00000  -0.00000   0.12311  -0.05420
  6 C 2py     -0.00000   0.00000   0.00000  -0.00000  -0.01176
  6 C 2pz     -0.51589  -0.24238  -0.49165  -0.00000   0.00000
  6 C 3px      0.00000  -0.00000  -0.00000   0.02059  -0.00244
  6 C 3py     -0.00000   0.00000  -0.00000  -0.00000  -0.02141
  6 C 3pz     -0.04219  -0.07224  -0.14653  -0.00000   0.00000
  6 C 3dxy     0.00000  -0.00000  -0.00000  -0.00000  -0.01686
  6 C 3dyz    -0.01024  -0.05609   0.02765   0.00000  -0.00000
  6 C 3dz^2   -0.00000   0.00000  -0.00000   0.01105  -0.01007
  6 C 3dxz    -0.01040   0.01069   0.02168   0.00000  -0.00000
 6 C 3dx2-y2   0.00000  -0.00000  -0.00000   0.00058   0.00861
  7 H 1s       0.00000   0.00000  -0.00000   0.24994  -0.08923
  7 H 2s       0.00000   0.00000  -0.00000   0.27060  -0.13323
  7 H 2px      0.00000  -0.00000   0.00000  -0.01115   0.00801
  7 H 2py     -0.00000   0.00000  -0.00000  -0.00000  -0.01320
  7 H 2pz     -0.00907  -0.01830  -0.03713  -0.00000   0.00000
  8 C 1s       0.00000  -0.00000   0.00000   0.00019   0.00009
  8 C 2s      -0.00000   0.00000   0.00000  -0.12021  -0.08197
  8 C 3s      -0.00000   0.00000   0.00000  -0.02629  -0.03271
  8 C 2px     -0.00000   0.00000  -0.00000   0.06156   0.06820
  8 C 2py     -0.00000   0.00000  -0.00000   0.10662   0.09990
  8 C 2pz     -0.03857   0.54692   0.03592  -0.00000   0.00000
  8 C 3px     -0.00000  -0.00000  -0.00000   0.01029   0.01709
  8 C 3py     -0.00000  -0.00000   0.00000   0.01783  -0.00359
  8 C 3pz     -0.00315   0.16300   0.01071   0.00000   0.00000
  8 C 3dxy     0.00000   0.00000   0.00000   0.00050  -0.01005
  8 C 3dyz    -0.01226  -0.01884  -0.03257  -0.00000   0.00000
  8 C 3dz^2   -0.00000  -0.00000  -0.00000   0.01105   0.02242
  8 C 3dxz     0.01968  -0.01561   0.05325   0.00000  -0.00000
 8 C 3dx2-y2  -0.00000   0.00000   0.00000  -0.00029   0.02089
  9 H 1s       0.00000  -0.00000  -0.00000   0.24994   0.19855
  9 H 2s      -0.00000  -0.00000  -0.00000   0.27061   0.29647
  9 H 2px     -0.00000  -0.00000  -0.00000  -0.00557  -0.00006
  9 H 2py      0.00000   0.00000   0.00000  -0.00966  -0.02056
  9 H 2pz     -0.00068   0.04130   0.00271   0.00000   0.00000
 10 C 1s       0.00000  -0.00000   0.00000   0.00019   0.00013
 10 C 2s       0.00000   0.00000   0.00000  -0.12021  -0.11881
 10 C 3s       0.00000  -0.00000   0.00000  -0.02629  -0.04740
 10 C 2px      0.00000  -0.00000  -0.00000  -0.06156  -0.08970
 10 C 2py      0.00000  -0.00000  -0.00000   0.10662   0.15007
 10 C 2pz      0.47733  -0.30459   0.45573  -0.00000   0.00000
 10 C 3px     -0.00000   0.00000   0.00000  -0.01029  -0.00811
 10 C 3py      0.00000  -0.00000   0.00000   0.01783   0.00442
 10 C 3pz      0.03903  -0.09078   0.13582   0.00000   0.00000
 10 C 3dxy    -0.00000  -0.00000  -0.00000  -0.00050   0.02214
 10 C 3dyz     0.01481  -0.01437  -0.03478  -0.00000   0.00000
 10 C 3dz^2   -0.00000  -0.00000  -0.00000   0.01105   0.03249
 10 C 3dxz     0.00639  -0.05174  -0.02005  -0.00000   0.00000
10 C 3dx2-y2  -0.00000   0.00000  -0.00000  -0.00029   0.01716
 11 H 1s      -0.00000  -0.00000  -0.00000   0.24994   0.28777
 11 H 2s      -0.00000  -0.00000  -0.00000   0.27060   0.42968
 11 H 2px     -0.00000   0.00000  -0.00000   0.00557   0.01035
 11 H 2py      0.00000  -0.00000   0.00000  -0.00966  -0.02387
 11 H 2pz      0.00839  -0.02300   0.03441   0.00000   0.00000
               #26       #27       #28       #29       #30      
  0 C 1s       0.00012   0.00003  -0.00022  -0.00014  -0.00000
  0 C 2s      -0.11592  -0.02957   0.20224   0.13553   0.00000
  0 C 3s      -0.04625  -0.00953   0.06520   0.03771   0.00000
  0 C 2px     -0.17057  -0.01498   0.10246   0.08087   0.00000
  0 C 2py      0.00373   0.10646   0.01556   0.00000  -0.00000
  0 C 2pz      0.00000   0.00000  -0.00000   0.00000  -0.36975
  0 C 3px     -0.00769  -0.00145   0.00989   0.04476   0.00000
  0 C 3py      0.00680   0.07867   0.01150   0.00000  -0.00000
  0 C 3pz      0.00000   0.00000  -0.00000   0.00000  -0.15268
  0 C 3dxy    -0.00536   0.01185   0.00173   0.00000  -0.00000
  0 C 3dyz     0.00000   0.00000   0.00000   0.00000   0.00000
  0 C 3dz^2    0.03170   0.00344  -0.02355  -0.01775  -0.00000
  0 C 3dxz    -0.00000   0.00000  -0.00000   0.00000  -0.04610
 0 C 3dx2-y2  -0.02708  -0.00748   0.05118   0.04194   0.00000
  1 H 1s       0.28079   0.03520  -0.24078  -0.18482   0.00000
  1 H 2s       0.41925   0.06358  -0.43492  -0.31838  -0.00000
  1 H 2px      0.02522   0.00531  -0.03635  -0.02709  -0.00000
  1 H 2py      0.00419   0.03616   0.00529   0.00000  -0.00000
  1 H 2pz      0.00000   0.00000  -0.00000   0.00000  -0.06714
  2 C 1s       0.00010   0.00017   0.00014   0.00014   0.00000
  2 C 2s      -0.08986  -0.16036  -0.12673  -0.13554  -0.00000
  2 C 3s      -0.03585  -0.05170  -0.04085  -0.03771  -0.00000
  2 C 2px     -0.05891   0.01715  -0.10521  -0.04043  -0.00000
  2 C 2py     -0.11867  -0.10372  -0.01340  -0.07003  -0.00000
  2 C 2pz      0.00000   0.00000   0.00000   0.00000   0.36977
  2 C 3px      0.01013   0.03877  -0.05712  -0.02238  -0.00000
  2 C 3py     -0.01273  -0.03144   0.02582  -0.03876  -0.00000
  2 C 3pz      0.00000   0.00000   0.00000   0.00000   0.15269
  2 C 3dxy    -0.02414  -0.03143  -0.03247  -0.03632  -0.00000
  2 C 3dyz    -0.00000  -0.00000   0.00000  -0.00000   0.03992
  2 C 3dz^2    0.02458   0.01868   0.01476   0.01776   0.00000
  2 C 3dxz     0.00000   0.00000  -0.00000  -0.00000   0.02305
 2 C 3dx2-y2   0.00017   0.02672   0.00790   0.02097   0.00000
  3 H 1s       0.21766   0.19093   0.15088   0.18482   0.00000
  3 H 2s       0.32499   0.34488   0.27254   0.31838   0.00000
  3 H 2px      0.01786   0.03403  -0.01344   0.01354   0.00000
  3 H 2py      0.01227   0.01363   0.03406   0.02346   0.00000
  3 H 2pz      0.00000   0.00000   0.00000  -0.00000   0.06714
  4 C 1s      -0.00003  -0.00020   0.00008  -0.00014   0.00000
  4 C 2s       0.02606   0.18992  -0.07551   0.13553   0.00000
  4 C 3s       0.01040   0.06123  -0.02434   0.03771   0.00000
  4 C 2px     -0.00874  -0.01369   0.10572  -0.04043  -0.00000
  4 C 2py      0.03923   0.10321   0.01686   0.07003   0.00000
  4 C 2pz     -0.00000   0.00000  -0.00000   0.00000  -0.36975
  4 C 3px      0.01814   0.02079   0.06583  -0.02238  -0.00000
  4 C 3py      0.01247   0.02273   0.03374   0.03876   0.00000
  4 C 3pz     -0.00000  -0.00000  -0.00000   0.00000  -0.15268
  4 C 3dxy    -0.01391  -0.03941   0.02211  -0.03632  -0.00000
  4 C 3dyz     0.00000   0.00000   0.00000   0.00000  -0.03992
  4 C 3dz^2   -0.00713  -0.02212   0.00880  -0.01775  -0.00000
  4 C 3dxz     0.00000   0.00000   0.00000   0.00000   0.02305
 4 C 3dx2-y2   0.01192  -0.02786  -0.00008  -0.02097  -0.00000
  5 H 1s      -0.06312  -0.22612   0.08991  -0.18482  -0.00000
  5 H 2s      -0.09424  -0.40845   0.16240  -0.31838  -0.00000
  5 H 2px      0.01455   0.02876   0.02262   0.01354   0.00000
  5 H 2py      0.00185  -0.02281   0.02873  -0.02346  -0.00000
  5 H 2pz     -0.00000  -0.00000  -0.00000   0.00000  -0.06714
  6 C 1s      -0.00012   0.00003  -0.00022   0.00014   0.00000
  6 C 2s       0.11592  -0.02957   0.20224  -0.13554  -0.00000
  6 C 3s       0.04625  -0.00953   0.06520  -0.03771  -0.00000
  6 C 2px     -0.17057   0.01498  -0.10247   0.08087  -0.00000
  6 C 2py      0.00374  -0.10646  -0.01556  -0.00000   0.00000
  6 C 2pz     -0.00000  -0.00000  -0.00000  -0.00000   0.36977
  6 C 3px     -0.00769   0.00145  -0.00989   0.04476   0.00000
  6 C 3py      0.00680  -0.07867  -0.01150  -0.00000   0.00000
  6 C 3pz     -0.00000  -0.00000  -0.00000  -0.00000   0.15269
  6 C 3dxy     0.00536   0.01185   0.00173   0.00000   0.00000
  6 C 3dyz    -0.00000  -0.00000  -0.00000   0.00000  -0.00000
  6 C 3dz^2   -0.03170   0.00344  -0.02356   0.01776  -0.00000
  6 C 3dxz     0.00000   0.00000   0.00000   0.00000  -0.04610
 6 C 3dx2-y2   0.02708  -0.00748   0.05118  -0.04194   0.00000
  7 H 1s      -0.28077   0.03520  -0.24079   0.18482   0.00000
  7 H 2s      -0.41923   0.06358  -0.43494   0.31838  -0.00000
  7 H 2px      0.02522  -0.00531   0.03635  -0.02709   0.00000
  7 H 2py      0.00419  -0.03616  -0.00529  -0.00000   0.00000
  7 H 2pz     -0.00000  -0.00000  -0.00000  -0.00000   0.06714
  8 C 1s      -0.00010   0.00017   0.00014  -0.00014   0.00000
  8 C 2s       0.08987  -0.16036  -0.12672   0.13553   0.00000
  8 C 3s       0.03585  -0.05170  -0.04085   0.03771   0.00000
  8 C 2px     -0.05892  -0.01715   0.10521  -0.04043  -0.00000
  8 C 2py     -0.11867   0.10372   0.01339  -0.07003  -0.00000
  8 C 2pz      0.00000  -0.00000   0.00000   0.00000  -0.36975
  8 C 3px      0.01013  -0.03877   0.05712  -0.02238   0.00000
  8 C 3py     -0.01273   0.03144  -0.02582  -0.03876  -0.00000
  8 C 3pz      0.00000   0.00000   0.00000   0.00000  -0.15267
  8 C 3dxy     0.02414  -0.03143  -0.03247   0.03632   0.00000
  8 C 3dyz    -0.00000  -0.00000  -0.00000  -0.00000   0.03992
  8 C 3dz^2   -0.02458   0.01868   0.01476  -0.01775   0.00000
  8 C 3dxz    -0.00000  -0.00000   0.00000  -0.00000   0.02305
 8 C 3dx2-y2  -0.00017   0.02672   0.00790  -0.02097  -0.00000
  9 H 1s      -0.21767   0.19092   0.15088  -0.18482   0.00000
  9 H 2s      -0.32500   0.34487   0.27253  -0.31837  -0.00000
  9 H 2px      0.01786  -0.03403   0.01345   0.01354   0.00000
  9 H 2py      0.01227  -0.01363  -0.03406   0.02346   0.00000
  9 H 2pz      0.00000   0.00000   0.00000   0.00000  -0.06714
 10 C 1s       0.00003  -0.00020   0.00008   0.00014   0.00000
 10 C 2s      -0.02606   0.18993  -0.07552  -0.13554  -0.00000
 10 C 3s      -0.01040   0.06123  -0.02435  -0.03771  -0.00000
 10 C 2px     -0.00874   0.01369  -0.10572  -0.04043   0.00000
 10 C 2py      0.03923  -0.10321  -0.01686   0.07003   0.00000
 10 C 2pz     -0.00000  -0.00000   0.00000  -0.00000   0.36977
 10 C 3px      0.01814  -0.02079  -0.06583  -0.02238   0.00000
 10 C 3py      0.01247  -0.02273  -0.03374   0.03876   0.00000
 10 C 3pz     -0.00000  -0.00000  -0.00000  -0.00000   0.15269
 10 C 3dxy     0.01391  -0.03941   0.02211   0.03632   0.00000
 10 C 3dyz     0.00000   0.00000  -0.00000   0.00000  -0.03992
 10 C 3dz^2    0.00713  -0.02212   0.00880   0.01776   0.00000
 10 C 3dxz    -0.00000  -0.00000  -0.00000  -0.00000   0.02305
10 C 3dx2-y2  -0.01192  -0.02786  -0.00008   0.02097   0.00000
 11 H 1s       0.06312  -0.22613   0.08991   0.18482  -0.00000
 11 H 2s       0.09424  -0.40846   0.16240   0.31838   0.00000
 11 H 2px      0.01455  -0.02876  -0.02262   0.01354   0.00000
 11 H 2py      0.00185   0.02281  -0.02873  -0.02346  -0.00000
 11 H 2pz     -0.00000  -0.00000  -0.00000  -0.00000   0.06714
               #31       #32       #33       #34       #35      
  0 C 1s       0.00025   0.00029  -0.00026  -0.00010  -0.00000
  0 C 2s      -0.14686  -0.17447   0.09064   0.03349   0.00000
  0 C 3s      -0.03255  -0.03867  -0.00054  -0.00020   0.00000
  0 C 2px      0.14874   0.17670  -0.18048  -0.06668   0.00000
  0 C 2py     -0.13878   0.11682   0.12134  -0.32841  -0.03943
  0 C 2pz      0.00000  -0.00000  -0.00000   0.00000  -0.00000
  0 C 3px      0.08313   0.09875  -0.11853  -0.04379   0.00000
  0 C 3py     -0.25651   0.21592   0.09327  -0.25245  -0.36030
  0 C 3pz      0.00000  -0.00000  -0.00000   0.00000  -0.00000
  0 C 3dxy    -0.10424   0.08775   0.02648  -0.07167  -0.14872
  0 C 3dyz     0.00000   0.00000   0.00000  -0.00000   0.00000
  0 C 3dz^2   -0.03457  -0.04106   0.01525   0.00563   0.00000
  0 C 3dxz     0.00000   0.00000  -0.00000  -0.00000  -0.00000
 0 C 3dx2-y2   0.01173   0.01393   0.07655   0.02828  -0.00000
  1 H 1s      -0.04516  -0.05365   0.15015   0.05548  -0.00000
  1 H 2s      -0.08488  -0.10084  -0.12429  -0.04592   0.00000
  1 H 2px     -0.00676  -0.00804   0.00527   0.00195   0.00000
  1 H 2py     -0.10615   0.08935   0.04905  -0.13276  -0.11479
  1 H 2pz      0.00000  -0.00000  -0.00000  -0.00000   0.00000
  2 C 1s      -0.00038   0.00007  -0.00005  -0.00027   0.00000
  2 C 2s       0.22452  -0.03995   0.01632   0.09525   0.00000
  2 C 3s       0.04976  -0.00885  -0.00010  -0.00056   0.00000
  2 C 2px     -0.08618   0.17491  -0.31509  -0.04362  -0.03415
  2 C 2py     -0.21282  -0.05426   0.14440  -0.19380   0.01971
  2 C 2pz      0.00000   0.00000  -0.00000   0.00000   0.00000
  2 C 3px     -0.01268   0.29719  -0.24039  -0.02292  -0.31203
  2 C 3py     -0.13943  -0.14547   0.11415  -0.13059   0.18015
  2 C 3pz      0.00000   0.00000  -0.00000   0.00000  -0.00000
  2 C 3dxy    -0.00359   0.06984  -0.02572   0.07611  -0.07436
  2 C 3dyz     0.00000   0.00000  -0.00000   0.00000  -0.00000
  2 C 3dz^2    0.05284  -0.00940   0.00274   0.01602   0.00000
  2 C 3dxz     0.00000   0.00000   0.00000   0.00000   0.00000
 2 C 3dx2-y2   0.02964   0.11458  -0.07210  -0.02905  -0.12879
  3 H 1s       0.06904  -0.01228   0.02703   0.15778  -0.00000
  3 H 2s       0.12978  -0.02309  -0.02237  -0.13060   0.00000
  3 H 2px      0.02622   0.11738  -0.12033   0.02347  -0.09942
  3 H 2py     -0.00320  -0.06989   0.07057  -0.00715   0.05740
  3 H 2pz      0.00000   0.00000   0.00000   0.00000  -0.00000
  4 C 1s       0.00013  -0.00036   0.00021  -0.00018   0.00000
  4 C 2s      -0.07767   0.21442  -0.07432   0.06175  -0.00000
  4 C 3s      -0.01721   0.04752   0.00044  -0.00037   0.00000
  4 C 2px     -0.18704   0.05508  -0.26776  -0.17173   0.03414
  4 C 2py     -0.01716  -0.21896   0.01629  -0.24113   0.01971
  4 C 2pz      0.00000   0.00000  -0.00000   0.00000  -0.00000
  4 C 3px     -0.29499  -0.03821  -0.19754  -0.13889   0.31203
  4 C 3py     -0.11955  -0.16220  -0.00182  -0.17344   0.18015
  4 C 3pz      0.00000   0.00000  -0.00000   0.00000  -0.00000
  4 C 3dxy    -0.06943  -0.00837   0.02995  -0.07455   0.07436
  4 C 3dyz     0.00000   0.00000  -0.00000   0.00000  -0.00000
  4 C 3dz^2   -0.01828   0.05047  -0.01250   0.01039   0.00000
  4 C 3dxz     0.00000  -0.00000   0.00000  -0.00000  -0.00000
 4 C 3dx2-y2   0.10785   0.04875   0.07367   0.02481  -0.12879
  5 H 1s      -0.02388   0.06594  -0.12312   0.10230  -0.00000
  5 H 2s      -0.04489   0.12393   0.10191  -0.08468   0.00000
  5 H 2px     -0.11119  -0.04586  -0.07617  -0.09607   0.09942
  5 H 2py     -0.06832  -0.01507  -0.04897  -0.05132   0.05740
  5 H 2pz      0.00000   0.00000  -0.00000   0.00000  -0.00000
  6 C 1s       0.00025   0.00029   0.00026   0.00010   0.00000
  6 C 2s      -0.14686  -0.17447  -0.09064  -0.03349   0.00000
  6 C 3s      -0.03255  -0.03867   0.00054   0.00020   0.00000
  6 C 2px     -0.14874  -0.17671  -0.18048  -0.06669  -0.00000
  6 C 2py      0.13879  -0.11682   0.12134  -0.32841  -0.03943
  6 C 2pz     -0.00000   0.00000  -0.00000   0.00000  -0.00000
  6 C 3px     -0.08312  -0.09875  -0.11853  -0.04380  -0.00000
  6 C 3py      0.25651  -0.21592   0.09327  -0.25244  -0.36030
  6 C 3pz     -0.00000   0.00000  -0.00000   0.00000   0.00000
  6 C 3dxy    -0.10424   0.08775  -0.02648   0.07166   0.14872
  6 C 3dyz    -0.00000   0.00000  -0.00000   0.00000   0.00000
  6 C 3dz^2   -0.03456  -0.04106  -0.01525  -0.00563   0.00000
  6 C 3dxz     0.00000  -0.00000  -0.00000   0.00000   0.00000
 6 C 3dx2-y2   0.01173   0.01393  -0.07655  -0.02828  -0.00000
  7 H 1s      -0.04516  -0.05365  -0.15015  -0.05548  -0.00000
  7 H 2s      -0.08488  -0.10084   0.12429   0.04592   0.00000
  7 H 2px      0.00676   0.00804   0.00527   0.00195  -0.00000
  7 H 2py      0.10615  -0.08935   0.04905  -0.13275  -0.11479
  7 H 2pz     -0.00000   0.00000   0.00000  -0.00000  -0.00000
  8 C 1s      -0.00038   0.00007   0.00005   0.00027   0.00000
  8 C 2s       0.22452  -0.03995  -0.01632  -0.09524   0.00000
  8 C 3s       0.04976  -0.00885   0.00010   0.00056   0.00000
  8 C 2px      0.08618  -0.17491  -0.31509  -0.04362  -0.03414
  8 C 2py      0.21283   0.05426   0.14440  -0.19379   0.01971
  8 C 2pz      0.00000  -0.00000  -0.00000  -0.00000  -0.00000
  8 C 3px      0.01268  -0.29719  -0.24039  -0.02292  -0.31203
  8 C 3py      0.13943   0.14547   0.11415  -0.13059   0.18015
  8 C 3pz      0.00000  -0.00000  -0.00000  -0.00000  -0.00000
  8 C 3dxy    -0.00359   0.06984   0.02572  -0.07611   0.07436
  8 C 3dyz    -0.00000   0.00000  -0.00000   0.00000  -0.00000
  8 C 3dz^2    0.05284  -0.00940  -0.00274  -0.01602   0.00000
  8 C 3dxz    -0.00000   0.00000   0.00000   0.00000  -0.00000
[...]
 11 H 1s       0.05648  -0.00289  -0.00329  -0.00917  -0.00885
 11 H 2s      -0.05781   0.00296   0.00614   0.01712   0.00532
 11 H 2px     -0.23851   0.03399  -0.18413   0.12312   0.10114
 11 H 2py      0.41567  -0.00868  -0.14819  -0.04563  -0.17517
 11 H 2pz      0.00000  -0.00000   0.00000  -0.00000  -0.00000
               #111      #112      #113      #114     
  0 C 1s      -0.00000   0.00014   0.00015  -0.00009
  0 C 2s       0.00000  -0.00870  -0.00946   0.00245
  0 C 3s      -0.00000  -0.00439  -0.00478   0.05312
  0 C 2px     -0.00000  -0.02612  -0.02838   0.01809
  0 C 2py      0.03548  -0.00777   0.00715  -0.00000
  0 C 2pz     -0.00000  -0.00000   0.00000   0.00000
  0 C 3px      0.00000  -0.02472  -0.02686   0.02271
  0 C 3py     -0.09265   0.03303  -0.03039   0.00000
  0 C 3pz     -0.00000   0.00000   0.00000   0.00000
  0 C 3dxy    -0.35564  -0.07461   0.06866  -0.00000
  0 C 3dyz    -0.00000   0.00000   0.00000  -0.00000
  0 C 3dz^2    0.00000   0.07049   0.07660  -0.06534
  0 C 3dxz    -0.00000  -0.00000  -0.00000   0.00000
 0 C 3dx2-y2   0.00000  -0.30643  -0.33301   0.36637
  1 H 1s       0.00000   0.02848   0.03095  -0.02033
  1 H 2s       0.00000  -0.05804  -0.06307   0.06692
  1 H 2px      0.00000  -0.19591  -0.21290   0.14002
  1 H 2py      0.17420   0.07152  -0.06581   0.00000
  1 H 2pz      0.00000   0.00000   0.00000  -0.00000
  2 C 1s      -0.00000   0.00006  -0.00020   0.00009
  2 C 2s       0.00000  -0.00384   0.01227  -0.00245
  2 C 3s      -0.00000  -0.00194   0.00619  -0.05312
  2 C 2px     -0.03073  -0.01449   0.01568  -0.00905
  2 C 2py      0.01774  -0.00494   0.03346  -0.01567
  2 C 2pz     -0.00000   0.00000   0.00000   0.00000
  2 C 3px      0.08024   0.03164   0.02903  -0.01136
  2 C 3py     -0.04633  -0.03086   0.02347  -0.01967
  2 C 3pz     -0.00000  -0.00000   0.00000   0.00000
  2 C 3dxy     0.17782  -0.16545   0.35887  -0.31729
  2 C 3dyz    -0.00000   0.00000   0.00000  -0.00000
  2 C 3dz^2   -0.00000   0.03109  -0.09934   0.06534
  2 C 3dxz     0.00000  -0.00000   0.00000  -0.00000
 2 C 3dx2-y2   0.30799  -0.01621  -0.24217   0.18319
  3 H 1s      -0.00000   0.01256  -0.04013   0.02033
  3 H 2s       0.00000  -0.02560   0.08180  -0.06692
  3 H 2px     -0.15087   0.03712   0.16320  -0.07001
  3 H 2py      0.08710  -0.12122   0.22461  -0.12126
  3 H 2pz      0.00000   0.00000  -0.00000   0.00000
  4 C 1s       0.00000  -0.00021   0.00005  -0.00009
  4 C 2s      -0.00000   0.01254  -0.00281   0.00245
  4 C 3s       0.00000   0.00633  -0.00142   0.05312
  4 C 2px     -0.03073  -0.01682   0.01314  -0.00905
  4 C 2py     -0.01774   0.03375  -0.00215   0.01567
  4 C 2pz      0.00000   0.00000   0.00000  -0.00000
  4 C 3px      0.08024  -0.02630  -0.03394  -0.01136
  4 C 3py      0.04633   0.02595  -0.02881   0.01967
  4 C 3pz      0.00000  -0.00000   0.00000  -0.00000
  4 C 3dxy     0.17782  -0.37137   0.13510  -0.31729
  4 C 3dyz     0.00000   0.00000  -0.00000   0.00000
  4 C 3dz^2   -0.00000  -0.10158   0.02274  -0.06534
  4 C 3dxz     0.00000  -0.00000   0.00000  -0.00000
 4 C 3dx2-y2  -0.30799  -0.23999  -0.03625  -0.18319
  5 H 1s      -0.00000  -0.04104   0.00919  -0.02033
  5 H 2s      -0.00000   0.08364  -0.01873   0.06692
  5 H 2px     -0.15087  -0.15956  -0.05053  -0.07001
  5 H 2py     -0.08710   0.23389  -0.10217   0.12126
  5 H 2pz     -0.00000  -0.00000   0.00000  -0.00000
  6 C 1s       0.00000   0.00014   0.00015   0.00009
  6 C 2s      -0.00000  -0.00870  -0.00946  -0.00245
  6 C 3s       0.00000  -0.00439  -0.00478  -0.05312
  6 C 2px     -0.00000   0.02612   0.02838   0.01809
  6 C 2py     -0.03548   0.00777  -0.00715   0.00000
  6 C 2pz      0.00000   0.00000  -0.00000  -0.00000
  6 C 3px      0.00000   0.02472   0.02686   0.02271
  6 C 3py      0.09265  -0.03303   0.03039  -0.00000
  6 C 3pz      0.00000   0.00000   0.00000  -0.00000
  6 C 3dxy    -0.35563  -0.07461   0.06866  -0.00000
  6 C 3dyz     0.00000   0.00000   0.00000   0.00000
  6 C 3dz^2   -0.00000   0.07049   0.07660   0.06534
  6 C 3dxz     0.00000   0.00000   0.00000   0.00000
 6 C 3dx2-y2  -0.00000  -0.30643  -0.33301  -0.36637
  7 H 1s      -0.00000   0.02848   0.03095   0.02033
  7 H 2s      -0.00000  -0.05804  -0.06307  -0.06692
  7 H 2px      0.00000   0.19591   0.21290   0.14002
  7 H 2py     -0.17420  -0.07152   0.06581  -0.00000
  7 H 2pz     -0.00000   0.00000   0.00000  -0.00000
  8 C 1s       0.00000   0.00006  -0.00020  -0.00009
  8 C 2s      -0.00000  -0.00384   0.01227   0.00245
  8 C 3s       0.00000  -0.00194   0.00619   0.05312
  8 C 2px      0.03073   0.01449  -0.01568  -0.00905
  8 C 2py     -0.01774   0.00494  -0.03346  -0.01567
  8 C 2pz      0.00000   0.00000  -0.00000  -0.00000
  8 C 3px     -0.08024  -0.03164  -0.02903  -0.01136
  8 C 3py      0.04633   0.03086  -0.02347  -0.01967
  8 C 3pz      0.00000  -0.00000   0.00000  -0.00000
  8 C 3dxy     0.17782  -0.16545   0.35887   0.31729
  8 C 3dyz     0.00000   0.00000  -0.00000  -0.00000
  8 C 3dz^2   -0.00000   0.03109  -0.09934  -0.06534
  8 C 3dxz    -0.00000   0.00000  -0.00000  -0.00000
 8 C 3dx2-y2   0.30799  -0.01621  -0.24217  -0.18319
  9 H 1s      -0.00000   0.01256  -0.04013  -0.02033
  9 H 2s       0.00000  -0.02560   0.08180   0.06692
  9 H 2px      0.15086  -0.03712  -0.16320  -0.07001
  9 H 2py     -0.08710   0.12122  -0.22461  -0.12126
  9 H 2pz     -0.00000   0.00000  -0.00000  -0.00000
 10 C 1s      -0.00000  -0.00021   0.00005   0.00009
 10 C 2s       0.00000   0.01254  -0.00281  -0.00245
 10 C 3s      -0.00000   0.00633  -0.00142  -0.05312
 10 C 2px      0.03073   0.01682  -0.01314  -0.00905
 10 C 2py      0.01774  -0.03375   0.00215   0.01567
 10 C 2pz      0.00000  -0.00000  -0.00000   0.00000
 10 C 3px     -0.08024   0.02630   0.03394  -0.01136
 10 C 3py     -0.04633  -0.02595   0.02881   0.01967
 10 C 3pz     -0.00000   0.00000  -0.00000   0.00000
 10 C 3dxy     0.17782  -0.37137   0.13510   0.31729
 10 C 3dyz    -0.00000  -0.00000  -0.00000   0.00000
 10 C 3dz^2    0.00000  -0.10158   0.02274   0.06534
 10 C 3dxz    -0.00000   0.00000  -0.00000  -0.00000
10 C 3dx2-y2  -0.30799  -0.23999  -0.03625   0.18319
 11 H 1s       0.00000  -0.04104   0.00919   0.02033
 11 H 2s       0.00000   0.08364  -0.01873  -0.06692
 11 H 2px      0.15087   0.15956   0.05053  -0.07001
 11 H 2py      0.08710  -0.23389   0.10217   0.12126
 11 H 2pz     -0.00000  -0.00000  -0.00000   0.00000

To work with the spin densities directly, `use mulliken_meta_spin()` only printing them here.

 ** Mulliken spin pop alpha/beta on meta-lowdin orthogonal AOs **
 ** Mulliken Spin Density (per AO)  **
spin_pop of  0 C 1s       -0.00000
spin_pop of  0 C 2s        0.00001
spin_pop of  0 C 3s       -0.00000
spin_pop of  0 C 2px       0.00000
spin_pop of  0 C 2py       0.00001
spin_pop of  0 C 2pz       0.00008
spin_pop of  0 C 3px      -0.00000
spin_pop of  0 C 3py       0.00000
spin_pop of  0 C 3pz       0.00000
spin_pop of  0 C 3dxy     -0.00000
spin_pop of  0 C 3dyz     -0.00000
spin_pop of  0 C 3dz^2    -0.00000
spin_pop of  0 C 3dxz     -0.00000
spin_pop of  0 C 3dx2-y2    0.00000
spin_pop of  1 H 1s       -0.00001
spin_pop of  1 H 2s        0.00000
spin_pop of  1 H 2px      -0.00000
spin_pop of  1 H 2py      -0.00000
spin_pop of  1 H 2pz       0.00000
spin_pop of  2 C 1s        0.00000
spin_pop of  2 C 2s       -0.00001
spin_pop of  2 C 3s        0.00000
spin_pop of  2 C 2px      -0.00000
spin_pop of  2 C 2py      -0.00000
spin_pop of  2 C 2pz      -0.00008
spin_pop of  2 C 3px       0.00000
spin_pop of  2 C 3py       0.00000
spin_pop of  2 C 3pz      -0.00000
spin_pop of  2 C 3dxy      0.00000
spin_pop of  2 C 3dyz      0.00000
spin_pop of  2 C 3dz^2     0.00000
spin_pop of  2 C 3dxz      0.00000
spin_pop of  2 C 3dx2-y2    0.00000
spin_pop of  3 H 1s        0.00000
spin_pop of  3 H 2s        0.00000
spin_pop of  3 H 2px       0.00000
spin_pop of  3 H 2py       0.00000
spin_pop of  3 H 2pz      -0.00000
spin_pop of  4 C 1s       -0.00000
spin_pop of  4 C 2s        0.00001
spin_pop of  4 C 3s       -0.00000
spin_pop of  4 C 2px       0.00001
spin_pop of  4 C 2py       0.00001
spin_pop of  4 C 2pz       0.00008
spin_pop of  4 C 3px       0.00000
spin_pop of  4 C 3py      -0.00000
spin_pop of  4 C 3pz       0.00000
spin_pop of  4 C 3dxy      0.00000
spin_pop of  4 C 3dyz     -0.00000
spin_pop of  4 C 3dz^2    -0.00000
spin_pop of  4 C 3dxz     -0.00000
spin_pop of  4 C 3dx2-y2   -0.00000
spin_pop of  5 H 1s       -0.00001
spin_pop of  5 H 2s        0.00000
spin_pop of  5 H 2px      -0.00000
spin_pop of  5 H 2py       0.00000
spin_pop of  5 H 2pz       0.00000
spin_pop of  6 C 1s        0.00000
spin_pop of  6 C 2s       -0.00001
spin_pop of  6 C 3s        0.00000
spin_pop of  6 C 2px      -0.00000
spin_pop of  6 C 2py      -0.00001
spin_pop of  6 C 2pz      -0.00008
spin_pop of  6 C 3px       0.00000
spin_pop of  6 C 3py       0.00000
spin_pop of  6 C 3pz      -0.00000
spin_pop of  6 C 3dxy     -0.00000
spin_pop of  6 C 3dyz      0.00000
spin_pop of  6 C 3dz^2     0.00000
spin_pop of  6 C 3dxz      0.00000
spin_pop of  6 C 3dx2-y2    0.00000
spin_pop of  7 H 1s        0.00000
spin_pop of  7 H 2s        0.00000
spin_pop of  7 H 2px       0.00000
spin_pop of  7 H 2py       0.00000
spin_pop of  7 H 2pz      -0.00000
spin_pop of  8 C 1s       -0.00000
spin_pop of  8 C 2s        0.00001
spin_pop of  8 C 3s       -0.00000
spin_pop of  8 C 2px       0.00001
spin_pop of  8 C 2py       0.00001
spin_pop of  8 C 2pz       0.00008
spin_pop of  8 C 3px       0.00000
spin_pop of  8 C 3py       0.00000
spin_pop of  8 C 3pz       0.00000
spin_pop of  8 C 3dxy      0.00000
spin_pop of  8 C 3dyz     -0.00000
spin_pop of  8 C 3dz^2    -0.00000
spin_pop of  8 C 3dxz     -0.00000
spin_pop of  8 C 3dx2-y2   -0.00000
spin_pop of  9 H 1s       -0.00001
spin_pop of  9 H 2s        0.00000
spin_pop of  9 H 2px      -0.00000
spin_pop of  9 H 2py       0.00000
spin_pop of  9 H 2pz       0.00000
spin_pop of  10 C 1s        0.00000
spin_pop of  10 C 2s       -0.00001
spin_pop of  10 C 3s        0.00000
spin_pop of  10 C 2px      -0.00000
spin_pop of  10 C 2py      -0.00000
spin_pop of  10 C 2pz      -0.00008
spin_pop of  10 C 3px       0.00000
spin_pop of  10 C 3py       0.00000
spin_pop of  10 C 3pz      -0.00000
spin_pop of  10 C 3dxy      0.00000
spin_pop of  10 C 3dyz      0.00000
spin_pop of  10 C 3dz^2     0.00000
spin_pop of  10 C 3dxz      0.00000
spin_pop of  10 C 3dx2-y2   -0.00000
spin_pop of  11 H 1s        0.00000
spin_pop of  11 H 2s        0.00000
spin_pop of  11 H 2px       0.00000
spin_pop of  11 H 2py       0.00000
spin_pop of  11 H 2pz      -0.00000
 ** Mulliken Spin Density (per atom)  **
spin density of  0 C =      0.00009
spin density of  1 H =     -0.00001
spin density of  2 C =     -0.00009
spin density of  3 H =      0.00000
spin density of  4 C =      0.00009
spin density of  5 H =     -0.00001
spin density of  6 C =     -0.00009
spin density of  7 H =      0.00000
spin density of  8 C =      0.00010
spin density of  9 H =     -0.00001
spin density of  10 C =     -0.00009
spin density of  11 H =      0.00000
 ** Mulliken pop alpha/beta on meta-lowdin orthogonal AOs **
 ** Mulliken pop       alpha | beta **
pop of  0 C 1s        0.99999 | 0.99999   
pop of  0 C 2s        0.48489 | 0.48488   
pop of  0 C 3s        0.00249 | 0.00250   
pop of  0 C 2px       0.53889 | 0.53889   
pop of  0 C 2py       0.51234 | 0.51234   
pop of  0 C 2pz       0.49676 | 0.49668   
pop of  0 C 3px       0.00261 | 0.00261   
pop of  0 C 3py       0.00333 | 0.00333   
pop of  0 C 3pz       0.00222 | 0.00222   
pop of  0 C 3dxy      0.00138 | 0.00138   
pop of  0 C 3dyz      0.00054 | 0.00054   
pop of  0 C 3dz^2     0.00108 | 0.00108   
pop of  0 C 3dxz      0.00040 | 0.00040   
pop of  0 C 3dx2-y2    0.00091 | 0.00091   
pop of  1 H 1s        0.44582 | 0.44583   
pop of  1 H 2s        0.00509 | 0.00509   
pop of  1 H 2px       0.00110 | 0.00110   
pop of  1 H 2py       0.00008 | 0.00008   
pop of  1 H 2pz       0.00011 | 0.00011   
pop of  2 C 1s        0.99999 | 0.99999   
pop of  2 C 2s        0.48488 | 0.48489   
pop of  2 C 3s        0.00250 | 0.00249   
pop of  2 C 2px       0.51897 | 0.51898   
pop of  2 C 2py       0.53225 | 0.53225   
pop of  2 C 2pz       0.49669 | 0.49676   
pop of  2 C 3px       0.00315 | 0.00315   
pop of  2 C 3py       0.00279 | 0.00279   
pop of  2 C 3pz       0.00222 | 0.00222   
pop of  2 C 3dxy      0.00103 | 0.00103   
pop of  2 C 3dyz      0.00044 | 0.00044   
pop of  2 C 3dz^2     0.00108 | 0.00108   
pop of  2 C 3dxz      0.00051 | 0.00051   
pop of  2 C 3dx2-y2    0.00126 | 0.00126   
pop of  3 H 1s        0.44583 | 0.44582   
pop of  3 H 2s        0.00509 | 0.00509   
pop of  3 H 2px       0.00033 | 0.00033   
pop of  3 H 2py       0.00085 | 0.00085   
pop of  3 H 2pz       0.00011 | 0.00011   
pop of  4 C 1s        0.99999 | 0.99999   
pop of  4 C 2s        0.48489 | 0.48488   
pop of  4 C 3s        0.00250 | 0.00250   
pop of  4 C 2px       0.51898 | 0.51898   
pop of  4 C 2py       0.53226 | 0.53225   
pop of  4 C 2pz       0.49676 | 0.49668   
pop of  4 C 3px       0.00315 | 0.00315   
pop of  4 C 3py       0.00279 | 0.00279   
pop of  4 C 3pz       0.00222 | 0.00222   
pop of  4 C 3dxy      0.00103 | 0.00103   
pop of  4 C 3dyz      0.00044 | 0.00044   
pop of  4 C 3dz^2     0.00108 | 0.00108   
pop of  4 C 3dxz      0.00051 | 0.00051   
pop of  4 C 3dx2-y2    0.00126 | 0.00126   
pop of  5 H 1s        0.44582 | 0.44583   
pop of  5 H 2s        0.00509 | 0.00509   
pop of  5 H 2px       0.00033 | 0.00033   
pop of  5 H 2py       0.00085 | 0.00085   
pop of  5 H 2pz       0.00011 | 0.00011   
pop of  6 C 1s        0.99999 | 0.99999   
pop of  6 C 2s        0.48488 | 0.48489   
pop of  6 C 3s        0.00250 | 0.00249   
pop of  6 C 2px       0.53889 | 0.53889   
pop of  6 C 2py       0.51234 | 0.51234   
pop of  6 C 2pz       0.49669 | 0.49676   
pop of  6 C 3px       0.00261 | 0.00261   
pop of  6 C 3py       0.00333 | 0.00333   
pop of  6 C 3pz       0.00222 | 0.00222   
pop of  6 C 3dxy      0.00138 | 0.00138   
pop of  6 C 3dyz      0.00054 | 0.00054   
pop of  6 C 3dz^2     0.00108 | 0.00108   
pop of  6 C 3dxz      0.00040 | 0.00040   
pop of  6 C 3dx2-y2    0.00091 | 0.00091   
pop of  7 H 1s        0.44583 | 0.44583   
pop of  7 H 2s        0.00509 | 0.00509   
pop of  7 H 2px       0.00110 | 0.00110   
pop of  7 H 2py       0.00008 | 0.00008   
pop of  7 H 2pz       0.00011 | 0.00011   
pop of  8 C 1s        0.99999 | 0.99999   
pop of  8 C 2s        0.48489 | 0.48488   
pop of  8 C 3s        0.00249 | 0.00250   
pop of  8 C 2px       0.51898 | 0.51897   
pop of  8 C 2py       0.53226 | 0.53225   
pop of  8 C 2pz       0.49676 | 0.49668   
pop of  8 C 3px       0.00315 | 0.00315   
pop of  8 C 3py       0.00279 | 0.00279   
pop of  8 C 3pz       0.00222 | 0.00222   
pop of  8 C 3dxy      0.00103 | 0.00103   
pop of  8 C 3dyz      0.00044 | 0.00044   
pop of  8 C 3dz^2     0.00108 | 0.00108   
pop of  8 C 3dxz      0.00051 | 0.00051   
pop of  8 C 3dx2-y2    0.00126 | 0.00126   
pop of  9 H 1s        0.44582 | 0.44583   
pop of  9 H 2s        0.00509 | 0.00509   
pop of  9 H 2px       0.00033 | 0.00033   
pop of  9 H 2py       0.00085 | 0.00085   
pop of  9 H 2pz       0.00011 | 0.00011   
pop of  10 C 1s        0.99999 | 0.99999   
pop of  10 C 2s        0.48488 | 0.48489   
pop of  10 C 3s        0.00250 | 0.00249   
pop of  10 C 2px       0.51897 | 0.51898   
pop of  10 C 2py       0.53225 | 0.53225   
pop of  10 C 2pz       0.49669 | 0.49676   
pop of  10 C 3px       0.00315 | 0.00315   
pop of  10 C 3py       0.00279 | 0.00279   
pop of  10 C 3pz       0.00222 | 0.00222   
pop of  10 C 3dxy      0.00103 | 0.00103   
pop of  10 C 3dyz      0.00044 | 0.00044   
pop of  10 C 3dz^2     0.00108 | 0.00108   
pop of  10 C 3dxz      0.00051 | 0.00051   
pop of  10 C 3dx2-y2    0.00126 | 0.00126   
pop of  11 H 1s        0.44583 | 0.44582   
pop of  11 H 2s        0.00509 | 0.00509   
pop of  11 H 2px       0.00033 | 0.00033   
pop of  11 H 2py       0.00085 | 0.00085   
pop of  11 H 2pz       0.00011 | 0.00011   
In total            21.00000 | 21.00000  
 ** Mulliken atomic charges   ( Nelec_alpha | Nelec_beta ) **
charge of  0C =     -0.09559  (     3.04784      3.04775 )
charge of  1H =      0.09559  (     0.45220      0.45221 )
charge of  2C =     -0.09560  (     3.04775      3.04784 )
charge of  3H =      0.09559  (     0.45221      0.45220 )
charge of  4C =     -0.09559  (     3.04784      3.04775 )
charge of  5H =      0.09559  (     0.45220      0.45221 )
charge of  6C =     -0.09559  (     3.04775      3.04784 )
charge of  7H =      0.09559  (     0.45221      0.45220 )
charge of  8C =     -0.09559  (     3.04784      3.04774 )
charge of  9H =      0.09559  (     0.45220      0.45221 )
charge of  10C =     -0.09559  (     3.04775      3.04784 )
charge of  11H =      0.09559  (     0.45221      0.45220 )
Dipole moment(X, Y, Z, Debye): -0.00000, -0.00001,  0.00000
Converting <class 'pyscf.soscf.newton_ah.newton.<locals>.SecondOrderUHF'> to UHF

******** <class 'pyscf.cc.uccsd.UCCSD'> ********
CC2 = 0
CCSD nocc = (21, 21), nmo = (114, 114)
max_cycle = 50
direct = 0
conv_tol = 1e-07
conv_tol_normt = 1e-06
diis_space = 6
diis_start_cycle = 0
diis_start_energy_diff = 1e+09
max_memory 4000 MB (current use 244 MB)
E1 = -713.6718904102527  Ecoul = 279.3097755697161
Init t2, MP2 energy = -0.797887393836417
    CPU time for init mp2      0.19 sec, wall time      0.19 sec
Init E_corr(CCSD) = -0.797887393885185
cycle = 1  E_corr(CCSD) = -0.808416844529267  dE = -0.0105294506  norm(t1,t2) = 0.109205
    CPU time for CCSD iter     24.86 sec, wall time     24.86 sec
cycle = 2  E_corr(CCSD) = -0.831260171125406  dE = -0.0228433266  norm(t1,t2) = 0.0347279
    CPU time for CCSD iter     25.51 sec, wall time     25.51 sec
cycle = 3  E_corr(CCSD) = -0.833099736062589  dE = -0.00183956494  norm(t1,t2) = 0.0147396
    CPU time for CCSD iter     24.94 sec, wall time     24.93 sec
cycle = 4  E_corr(CCSD) = -0.836385768229506  dE = -0.00328603217  norm(t1,t2) = 0.00702418
    CPU time for CCSD iter     25.57 sec, wall time     25.57 sec
cycle = 5  E_corr(CCSD) = -0.836234995000357  dE = 0.000150773229  norm(t1,t2) = 0.0015721
    CPU time for CCSD iter     25.70 sec, wall time     25.70 sec
cycle = 6  E_corr(CCSD) = -0.836158913036112  dE = 7.60819642e-05  norm(t1,t2) = 0.000393783
    CPU time for CCSD iter     25.91 sec, wall time     25.91 sec
cycle = 7  E_corr(CCSD) = -0.836175080347414  dE = -1.61673113e-05  norm(t1,t2) = 0.000103649
    CPU time for CCSD iter     25.88 sec, wall time     25.88 sec
cycle = 8  E_corr(CCSD) = -0.836177287589384  dE = -2.20724197e-06  norm(t1,t2) = 2.33042e-05
    CPU time for CCSD iter     25.77 sec, wall time     25.77 sec
cycle = 9  E_corr(CCSD) = -0.836176724608475  dE = 5.62980909e-07  norm(t1,t2) = 7.4615e-06
    CPU time for CCSD iter     25.62 sec, wall time     25.62 sec
cycle = 10  E_corr(CCSD) = -0.836176698142185  dE = 2.64662896e-08  norm(t1,t2) = 2.25539e-06
    CPU time for CCSD iter     25.26 sec, wall time     25.26 sec
cycle = 11  E_corr(CCSD) = -0.836176667752637  dE = 3.03895484e-08  norm(t1,t2) = 6.27237e-07
    CPU time for CCSD iter     25.91 sec, wall time     25.91 sec
    CPU time for CCSD    280.93 sec, wall time    280.93 sec
UCCSD converged
E(UCCSD) = -231.5582255314544  E_corr = -0.8361766677526368
E1 = -713.6718904102527  Ecoul = 279.3097755697161
max_memory 2052 MB (1947 MB in use)
max_memory 2052 MB (1947 MB in use)
    CPU time for UCCSD(T)    751.87 sec, wall time    751.76 sec
UCCSD(T) correction = -0.0361178922235803


CCSD correlation energy:  -0.8361766677526368
E1 = -713.6718904102527  Ecoul = 279.3097755697161
CCSD total energy:  -231.5582255314544


CCSD(T) correlation energy:  -0.8722945599762171
E1 = -713.6718904102527  Ecoul = 279.3097755697161
CCSD(T) total energy:  -231.594343423678
