#INFO: **** input file is /projects/ilsa8974/experiments/VMCr/papers/jpghf_realspace/benzene/cc/ae/tz/Benzene/benzene.py ****
import json
import numpy as np
from pyscf import lib, gto, scf, ao2mo, tools, fci, mcscf, cc
from pyscf.shciscf import shci, settings

bondlengths = {'CC':2.636, 'CH':2.038}

atomstring = f""
for i in range(6):
    x = np.cos(i * np.pi / 3)
    y = np.sin(i * np.pi / 3)
    atomstring += f"C\t{bondlengths['CC']*x}\t{bondlengths['CC']*y}\t0.0;"
    atomstring += f"H\t{(bondlengths['CC']+bondlengths['CH'])*x}\t{(bondlengths['CC']+bondlengths['CH'])*y}\t0.0;"

mol = gto.M(
atom = atomstring,
unit = "bohr",
cart = False,
spin = 0,
basis = "ccpvtz",
verbose = 5
)
mf = scf.UHF(mol).newton()
norbs = mol.nao

dm = mf.get_init_guess()

dm = dm + (2.0 * np.random.rand(norbs, norbs) - 1.0) / 1000
mf.max_cycle = 100
mf.kernel(dm0 = dm)
mf.analyze()

mycc = mf.CCSD()
mycc.run()
et = mycc.ccsd_t()
print("\n")
print('CCSD correlation energy: ', mycc.e_corr)
print('CCSD total energy: ', mf.energy_tot() + mycc.e_corr)
print("\n")
print('CCSD(T) correlation energy: ', mycc.e_corr + et)
print('CCSD(T) total energy: ', mf.energy_tot() + mycc.e_corr + et)
#INFO: ******************** input file end ********************


System: uname_result(system='Linux', node='bnode0304.rc.int.colorado.edu', release='3.10.0-693.37.4.el7.x86_64', version='#1 SMP Fri Aug 10 12:34:55 EDT 2018', machine='x86_64', processor='x86_64')  Threads 1
Python 3.7.3 (default, Mar 27 2019, 22:11:17) 
[GCC 7.3.0]
numpy 1.16.4  scipy 1.3.0
Date: Wed Jun  9 13:40:10 2021
PySCF version 1.7.5
PySCF path  /projects/ilsa8974/apps/pyscf/pyscf
GIT HEAD      ref: refs/heads/master
GIT master branch  7a57d2f37184ea4cd3b52a590c945197b084f66d

[CONFIG] conf_file None
[INPUT] verbose = 5
[INPUT] max_memory = 4000 
[INPUT] num. atoms = 12
[INPUT] num. electrons = 42
[INPUT] charge = 0
[INPUT] spin (= nelec alpha-beta = 2S) = 0
[INPUT] symmetry False subgroup None
[INPUT] Mole.unit = bohr
[INPUT]  1 C      1.394911127985   0.000000000000   0.000000000000 AA    2.636000000000   0.000000000000   0.000000000000 Bohr
[INPUT]  2 H      2.473374283840   0.000000000000   0.000000000000 AA    4.674000000000   0.000000000000   0.000000000000 Bohr
[INPUT]  3 C      0.697455563993   1.208028472857   0.000000000000 AA    1.318000000000   2.282842964376   0.000000000000 Bohr
[INPUT]  4 H      1.236687141920   2.142004962873   0.000000000000 AA    2.337000000000   4.047802737288   0.000000000000 Bohr
[INPUT]  5 C     -0.697455563993   1.208028472857   0.000000000000 AA   -1.318000000000   2.282842964376   0.000000000000 Bohr
[INPUT]  6 H     -1.236687141920   2.142004962873   0.000000000000 AA   -2.337000000000   4.047802737288   0.000000000000 Bohr
[INPUT]  7 C     -1.394911127985   0.000000000000   0.000000000000 AA   -2.636000000000   0.000000000000   0.000000000000 Bohr
[INPUT]  8 H     -2.473374283840   0.000000000000   0.000000000000 AA   -4.674000000000   0.000000000000   0.000000000000 Bohr
[INPUT]  9 C     -0.697455563993  -1.208028472857   0.000000000000 AA   -1.318000000000  -2.282842964376   0.000000000000 Bohr
[INPUT] 10 H     -1.236687141920  -2.142004962873   0.000000000000 AA   -2.337000000000  -4.047802737288   0.000000000000 Bohr
[INPUT] 11 C      0.697455563993  -1.208028472857   0.000000000000 AA    1.318000000000  -2.282842964376   0.000000000000 Bohr
[INPUT] 12 H      1.236687141920  -2.142004962873   0.000000000000 AA    2.337000000000  -4.047802737288   0.000000000000 Bohr
[INPUT] ---------------- BASIS SET ---------------- 
[INPUT] l, kappa, [nprim/nctr], expnt,             c_1 c_2 ...
[INPUT] C
[INPUT] 0    0    [8    /2   ]  8236              0.000531 -0.000113
                                1235              0.004108 -0.000878
                                280.8             0.021087 -0.00454
                                79.27             0.081853 -0.018133
                                25.59             0.234817 -0.05576
                                8.997             0.434401 -0.126895
                                3.319             0.346129 -0.170352
                                0.3643            -0.008983 0.598684
[INPUT] 0    0    [1    /1   ]  0.9059               1
[INPUT] 0    0    [1    /1   ]  0.1285               1
[INPUT] 1    0    [3    /1   ]  18.71             0.014031
                                4.133             0.086866
                                1.2               0.290216
[INPUT] 1    0    [1    /1   ]  0.3827               1
[INPUT] 1    0    [1    /1   ]  0.1209               1
[INPUT] 2    0    [1    /1   ]  1.097                1
[INPUT] 2    0    [1    /1   ]  0.318                1
[INPUT] 3    0    [1    /1   ]  0.761                1
[INPUT] H
[INPUT] 0    0    [3    /1   ]  33.87             0.006068
                                5.095             0.045308
                                1.159             0.202822
[INPUT] 0    0    [1    /1   ]  0.3258               1
[INPUT] 0    0    [1    /1   ]  0.1027               1
[INPUT] 1    0    [1    /1   ]  1.407                1
[INPUT] 1    0    [1    /1   ]  0.388                1
[INPUT] 2    0    [1    /1   ]  1.057                1

nuclear repulsion = 203.640065976835
number of shells = 90
number of NR pGTOs = 348
number of NR cGTOs = 264
basis = ccpvtz
ecp = {}
CPU time:         0.47




******** <class 'pyscf.scf.uhf.UHF'> ********
method = UHF
initial guess = minao
damping factor = 0
level_shift factor = 0
DIIS = <class 'pyscf.scf.diis.CDIIS'>
diis_start_cycle = 1
diis_space = 8
SCF conv_tol = 1e-09
SCF conv_tol_grad = None
SCF max_cycles = 50
direct_scf = True
direct_scf_tol = 1e-13
chkfile to save SCF result = /rc_scratch/ilsa8974/tmp9h1i5s37
max_memory 4000 MB (current use 77 MB)
number electrons alpha = 21  beta = 21
******** <class 'pyscf.scf.uhf.UHF'> Newton solver flags ********
SCF tol = 1e-09
conv_tol_grad = None
max. SCF cycles = 100
direct_scf = True
direct_scf_tol = 1e-13
chkfile to save SCF result = /rc_scratch/ilsa8974/tmp9h1i5s37
max_cycle_inner = 12
max_stepsize = 0.05
ah_start_tol = 1e+09
ah_level_shift = 0
ah_conv_tol = 1e-12
ah_lindep = 1e-14
ah_start_cycle = 1
ah_max_cycle = 40
ah_grad_trust_region = 2.5
kf_interval = 4
kf_trust_region = 5
canonicalization = True
max_memory 4000 MB (current use 77 MB)
Set conv_tol_grad to 3.16228e-05
    CPU time for vj and vk     24.52 sec, wall time     24.52 sec
  alpha nocc = 21  HOMO = -0.147510731382999  LUMO = -0.141357507266118
  beta  nocc = 21  HOMO = -0.15618561641033  LUMO = -0.150421916710436

WARN: system HOMO -0.15618561641033 >= system LUMO -0.150421916710436

  alpha mo_energy =
[-11.19795489 -11.19243833 -11.18715821 -11.18640556 -11.18491194
 -11.18101893  -6.75221529  -1.54863398  -1.20369412  -1.19927447
  -0.80601569  -0.80455734  -0.58555053  -0.52474922  -0.39295105
  -0.38110064  -0.37716599  -0.31866177  -0.24275546  -0.23828632
  -0.14751073  -0.14135751  -0.05726408   0.12975312   0.14087887
   0.15712376   0.18952503   0.20202267   0.21867515   0.23770168
   0.25762889   0.30800309   0.3300312    0.38064546   0.42740491
   0.4519347    0.46622489   0.48527146   0.4898889    0.52057401
   0.5254166    0.53053727   0.54509531   0.54793984   0.56922543
   0.59740372   0.60142823   0.60589187   0.60994004   0.61132756
   0.6161141    0.63042123   0.64644684   0.67743728   0.67970288
   0.68774777   0.72814931   0.75479382   0.82399258   0.82681458
   0.88185841   0.90284718   0.9144796    0.91856419   0.93429896
   0.94134744   0.97359708   1.00976185   1.01377308   1.02927442
   1.07209623   1.10478589   1.1346706    1.15905866   1.17962738
   1.2006593    1.23715898   1.25453401   1.26035305   1.26630283
   1.29531444   1.330833     1.35218063   1.35756522   1.35928556
   1.39706887   1.41448469   1.46063827   1.5034128    1.52867929
   1.54083201   1.54572048   1.55453423   1.55747693   1.59077369
   1.64385357   1.65361178   1.6654975    1.69258643   1.70921726
   1.72348065   1.78522913   1.81411637   1.83197598   1.87310116
   1.89241991   1.90080727   2.07546132   2.17309505   2.19240974
   2.32934328   2.33720587   2.35063539   2.38477442   2.48996719
   2.49540071   2.50030353   2.5148804    2.5327114    2.53862132
   2.58664122   2.59184844   2.6576822    2.70409368   2.73038015
   2.79179435   2.8034664    2.83166648   2.83717007   2.85794246
   2.90573442   2.95197793   2.97903222   3.00099946   3.00121616
   3.00827319   3.04256013   3.04621764   3.05152748   3.08434673
   3.10756842   3.12007447   3.12395476   3.12772178   3.14872163
   3.20203646   3.20967893   3.26754187   3.2709671    3.27344191
   3.30086535   3.33503012   3.36802468   3.37874378   3.39363174
   3.40621295   3.41085591   3.41447401   3.4159146    3.44398603
   3.46679642   3.46951841   3.47244753   3.49088215   3.49608774
   3.49858009   3.52517027   3.64884878   3.65161017   3.65532394
   3.68064975   3.68902835   3.70062278   3.71564967   3.72155896
   3.74865602   3.75151177   3.80735681   3.81845538   3.8861381
   3.91451517   3.9368795    3.96254915   3.96464933   3.98510583
   4.10055901   4.10606198   4.12880639   4.14123227   4.14586764
   4.14787687   4.15275304   4.15554592   4.17191037   4.18749202
   4.20980397   4.21484641   4.21862444   4.24571296   4.24785182
   4.24892686   4.32490644   4.36511606   4.378172     4.47210723
   4.47443303   4.47813681   4.51393414   4.54048608   4.54720525
   4.5593068    4.60600979   4.65723425   4.67904642   4.69172411
   4.70645936   4.71138084   4.7165608    4.72519556   4.7307925
   4.74002399   4.82261807   4.88990121   4.93319659   4.96522195
   5.03456802   5.04881804   5.10752454   5.13829936   5.14357511
   5.16464602   5.1693125    5.17308851   5.21066484   5.22770959
   5.30716954   5.34927444   5.38247406   5.4214105    5.43100686
   5.46285198   5.50178391   5.54783228   5.59242775   5.62412761
   5.79885337   5.87057386   5.95515265   6.10507772   6.11998978
   6.15250102   6.37275418   6.44034744   6.5556488    6.57441597
   7.00844436   7.06891766   7.56189268   9.81191819  13.0384268
  13.21141445  13.57350609  13.74581603  15.87981138]
  beta  mo_energy =
[-11.21132871 -11.20589201 -11.19979041 -11.19749445 -11.19544183
 -11.19172334  -6.75248464  -1.64137002  -1.2390271   -1.23480212
  -0.81062736  -0.80946133  -0.58730596  -0.51234649  -0.40025043
  -0.39436404  -0.38338411  -0.33262226  -0.24893146  -0.24431946
  -0.15618562  -0.15042192  -0.05794979   0.12602482   0.13658319
   0.15496975   0.18825619   0.20133994   0.21791531   0.2373562
   0.2567612    0.30672306   0.32835588   0.37936861   0.42515459
   0.44995285   0.46029126   0.48277316   0.48699887   0.51652883
   0.52247332   0.52806107   0.54114746   0.54392339   0.56596746
   0.59391858   0.59796591   0.60334481   0.6074697    0.60858819
   0.61294934   0.6273769    0.64421623   0.67569027   0.6777217
   0.68326001   0.72679367   0.75315803   0.82246431   0.82513163
   0.88054268   0.89860875   0.91298854   0.91710719   0.93263165
   0.93974452   0.97221215   1.00834495   1.01236129   1.02608058
   1.06672473   1.10277859   1.13323847   1.15748939   1.17705452
   1.19881529   1.23535146   1.25254717   1.25892579   1.26507989
   1.29357333   1.32896915   1.34976819   1.35605748   1.35731277
   1.39558738   1.41289137   1.4595258    1.50185363   1.52703665
   1.53883883   1.54388895   1.55274757   1.55573671   1.58962874
   1.6418925    1.65151745   1.6642221    1.69093514   1.7075839
   1.72191364   1.7843383    1.81278176   1.83089289   1.87257787
   1.89130194   1.89978077   2.07445      2.17166956   2.19125025
   2.32800242   2.33470462   2.34874623   2.38194331   2.48814051
   2.49302109   2.49803076   2.51151979   2.53041341   2.53623481
   2.58423813   2.58948265   2.65329803   2.7016976    2.7286249
   2.78962297   2.8012189    2.82947272   2.83641035   2.85599454
   2.90384843   2.9495292    2.97536459   2.99777546   2.99814702
   3.00597335   3.04101075   3.04468434   3.04833433   3.08214172
   3.10593833   3.11769261   3.12119205   3.12525287   3.14706689
   3.20064797   3.2085087    3.26631588   3.26962543   3.27130422
   3.29942605   3.3339983    3.36640842   3.37726944   3.39192903
   3.40566561   3.41005512   3.4134243    3.41563341   3.44257942
   3.46535092   3.46816082   3.47128384   3.48930575   3.49455643
   3.49769361   3.5234913    3.64864228   3.65084259   3.65458813
   3.6798283    3.68831261   3.69948678   3.71461943   3.72076829
   3.74810871   3.75098663   3.80615501   3.81740616   3.8854928
   3.91369264   3.93651965   3.96148515   3.96307613   3.98448936
   4.10017111   4.10586932   4.12801763   4.14002751   4.14470882
   4.14712214   4.15199325   4.15387852   4.1704459    4.1860683
   4.20870994   4.21377484   4.21763405   4.24498936   4.24691606
   4.24838886   4.32372776   4.36430301   4.37731969   4.47065096
   4.47326969   4.47698255   4.51235712   4.53980715   4.54595631
   4.55858755   4.60449443   4.65626607   4.67793073   4.69081224
   4.70516599   4.70997795   4.71505601   4.72404169   4.72958559
   4.73882956   4.82170231   4.88900772   4.93211059   4.96461227
   5.03370501   5.04817666   5.10667006   5.13732367   5.14302915
   5.16396962   5.16869694   5.17251271   5.20970597   5.22640726
   5.30614312   5.34879087   5.38205709   5.42076184   5.4303693
   5.46216725   5.50124808   5.54740282   5.59187247   5.62358715
   5.79796088   5.86988477   5.95419262   6.10407226   6.11892386
   6.15153849   6.37198857   6.4396407    6.55479578   6.57359259
   7.00742041   7.06783148   7.5612381    9.81107393  13.0373122
  13.21028527  13.57227223  13.74459103  15.87879068]
multiplicity <S^2> = 0.0010407083  2S+1 = 1.0020793
    CPU time for vj and vk     25.37 sec, wall time     25.37 sec
E1 = -696.3335690687417  Ecoul = 266.3983964725934
Initial guess E= -226.295106619314  |g|= 2.96421
    CPU time for initializing second order scf     49.96 sec, wall time     50.11 sec
    |g|= 2.96 (keyframe)
    CPU time for vj and vk     25.37 sec, wall time     25.37 sec
    imic 1(1)  |g|= 2.04  |dxi|= 0.116  max(|x|)= 0.13  |dr|= 0.116  eig= -0.899  seig=    1
    CPU time for vj and vk     25.38 sec, wall time     25.38 sec
Negative hessians found [-1.04029208]
    imic 2(2)  |g|= 1.57  |dxi|= 0.124  max(|x|)= 0.0892  |dr|= 0.237  eig= -0.399  seig=    1
    CPU time for vj and vk     25.37 sec, wall time     25.37 sec
Negative hessians found [-1.04578787 -0.52999901]
    imic 3(3)  |g|= 1.56  |dxi|= 0.0733  max(|x|)= 2.14  |dr|= 0.255  eig= -0.581  seig=    1
    CPU time for vj and vk     25.27 sec, wall time     25.27 sec
Negative hessians found [-1.05347212 -0.84309802 -0.5297575 ]
    imic 4(4)  |g|= 1.55  |dxi|= 0.0903  max(|x|)= 4.85  |dr|= 0.278  eig= -0.852  seig=    1
    CPU time for vj and vk     25.44 sec, wall time     25.44 sec
Negative hessians found [-1.05349908 -1.02138272 -0.8429089  -0.52975408]
    imic 5(5)  |g|= 1.55  |dxi|= 0.0915  max(|x|)= 2.52  |dr|= 0.329  eig= -0.876  seig=    1
    CPU time for vj and vk     25.34 sec, wall time     25.34 sec
Negative hessians found [-1.05507972 -1.0467934  -1.02102605 -0.84134471 -0.52885538]
    imic 6(6)  |g|= 1.54  |dxi|= 0.0953  max(|x|)= 1.82  |dr|= 0.397  eig= -0.907  seig=    1
    CPU time for vj and vk     25.19 sec, wall time     25.19 sec
E1 = -698.4292562119874  Ecoul = 267.494372868592
Adjust keyframe g_orb to |g|= 1.46  |g-correction|=0.195  E=-227.294817367 dE=-0.99971
    CPU time for vj and vk     25.20 sec, wall time     25.20 sec
Negative hessians found [-1.09059617 -1.04956203 -1.04217629 -1.02099573 -0.84015421 -0.5283544 ]
    imic 7(7)  |g|= 1.46  |dxi|= 0.0945  max(|x|)= 2.19  |dr|= 0.0945  eig= -0.887  seig=    1
    CPU time for vj and vk     25.34 sec, wall time     25.34 sec
Negative hessians found [-1.09105111 -1.07793911 -1.04858482 -1.03375844 -1.0209688  -0.8189004
 -0.52830343]
    imic 8(8)  |g|= 1.47  |dxi|= 0.152  max(|x|)= 1.61  |dr|= 0.207  eig= -1.11  seig= 0.552
    CPU time for vj and vk     25.30 sec, wall time     25.30 sec
Negative hessians found [-1.26396779 -1.09087738 -1.07102212 -1.04856359 -1.03136544 -1.02093973
 -0.81846442 -0.52826827]
    imic 9(9)  |g|= 1.49  |dxi|= 0.153  max(|x|)= 0.972  |dr|= 0.351  eig= -1.19  seig= 0.551
    CPU time for vj and vk     25.29 sec, wall time     25.29 sec
Negative hessians found [-1.3429042  -1.24929968 -1.0908645  -1.06605709 -1.04850129 -1.03135933
 -1.02091481 -0.81766362 -0.526158  ]
    imic 10(10)  |g|= 1.51  |dxi|= 0.0743  max(|x|)= 2.42  |dr|= 0.395  eig= -1.38  seig= 0.551
    CPU time for vj and vk     25.25 sec, wall time     25.26 sec
Negative hessians found [-1.44996006 -1.32255843 -1.17664263 -1.09086172 -1.05330644 -1.04845673
 -1.02996922 -1.02068148 -0.81498454 -0.52576391]
    imic 11(11)  |g|= 1.53  |dxi|= 0.0961  max(|x|)= 1.63  |dr|= 0.449  eig= -1.54  seig= 0.546
    CPU time for vj and vk     24.98 sec, wall time     24.98 sec
E1 = -699.4212611102262  Ecoul = 268.13469361201754
Adjust keyframe g_orb to |g|= 1.34  |g-correction|=0.292  E=-227.646501521 dE=-0.35168
    CPU time for vj and vk     25.24 sec, wall time     25.24 sec
Negative hessians found [-1.54260387 -1.40423612 -1.32240689 -1.13603622 -1.08961903 -1.04847672
 -1.04662346 -1.02996676 -1.02026394 -0.81179381 -0.52573058]
    imic 12(12)  |g|= 1.36  |dxi|= 0.0953  max(|x|)= 2.45  |dr|= 0.0953  eig= -1.59  seig= 0.546
    tot inner=12  15 JK  |g|= 1.36  |u-1|= 0.0953
    CPU time for aug_hess in 12 inner iters    354.14 sec, wall time    354.15 sec
    CPU time for vj and vk     24.79 sec, wall time     24.79 sec
  alpha nocc = 21  HOMO = -0.339673372486649  LUMO = -0.0833309575444108
  beta  nocc = 21  HOMO = -0.340057247001801  LUMO = -0.0832206594747258
  alpha mo_energy =
[-11.68999745 -11.66128633 -11.63222979 -11.62190927 -11.52267708
 -11.45125021  -1.46010615  -1.32337876  -1.27015416  -1.08806539
  -1.07485211  -0.93313446  -0.89948436  -0.85448838  -0.826701
  -0.76614037  -0.71850148  -0.70345128  -0.67855607  -0.54170231
  -0.33967337  -0.08333096  -0.05507258   0.05080424   0.10311974
   0.11951442   0.13656054   0.1381617    0.14989275   0.18834859
   0.22631582   0.23115323   0.2401232    0.25570289   0.25811089
   0.26735375   0.28987266   0.32120486   0.32229026   0.34001101
   0.34868682   0.35337057   0.39344965   0.40616862   0.40804336
   0.41412089   0.42619942   0.44715964   0.46371677   0.49261806
   0.51668959   0.52375567   0.5326048    0.54569823   0.55036552
   0.55920303   0.56464845   0.58940973   0.61405423   0.62066084
   0.62547279   0.67433511   0.71092697   0.75227177   0.7562135
   0.76227134   0.77614382   0.7942366    0.79891155   0.80440958
   0.89331057   0.90973708   0.92167259   0.98068667   0.99027326
   1.04022746   1.04517915   1.06062167   1.08511317   1.10493207
   1.11872015   1.12544454   1.15188953   1.18338734   1.19005734
   1.21166491   1.22465923   1.29498223   1.30995185   1.31365614
   1.3159427    1.33728945   1.3465871    1.36505093   1.3681077
   1.40335938   1.42582963   1.43724507   1.44578088   1.46776202
   1.47871202   1.48331723   1.53915164   1.5631463    1.59888699
   1.60667814   1.64423608   1.726818     1.94341326   2.00370222
   2.01295925   2.04113013   2.04277938   2.06791673   2.08067023
   2.13343659   2.14285227   2.19123146   2.20346196   2.23130594
   2.23838063   2.24433409   2.30273222   2.31449107   2.40315279
   2.46634799   2.47977266   2.5113057    2.53343975   2.55446655
   2.57248886   2.6403014    2.66041655   2.66207085   2.66735267
   2.69253602   2.71715219   2.74513178   2.76457819   2.76499875
   2.77503942   2.79890812   2.82349676   2.83223852   2.90125313
   2.91455726   2.93753504   2.93985787   2.95765443   2.99606069
   3.01940989   3.04633164   3.05071572   3.06043113   3.09369483
   3.1299264    3.13344193   3.14522081   3.14562228   3.15361046
   3.16729504   3.16803792   3.17564567   3.21578095   3.2221002
   3.24297311   3.2614026    3.28580417   3.38377344   3.3945653
   3.4125155    3.43476549   3.44303433   3.46349149   3.47341104
   3.48396082   3.50119577   3.51803288   3.51850171   3.54076268
   3.55941641   3.68354519   3.70948287   3.7116664    3.74446039
   3.84829956   3.87256241   3.8739758    3.89898838   3.9067052
   3.91087526   3.92548508   3.93261405   3.93277408   3.93739138
   3.9506341    3.96670635   3.98109163   3.99799301   4.07353191
   4.11422904   4.1392349    4.1416277    4.15316028   4.18830311
   4.19154965   4.22672032   4.23887157   4.27497728   4.29006451
   4.35157951   4.3561154    4.36605285   4.37028221   4.37828083
   4.39282837   4.40344081   4.42643294   4.4329074    4.47250544
   4.4785593    4.52596998   4.55879826   4.68088514   4.69354636
   4.71658503   4.78917448   4.80527628   4.80904624   4.81698941
   4.89950628   4.91354262   4.94017398   4.94544085   4.95776647
   5.06624079   5.13969066   5.16279237   5.17929344   5.21033912
   5.21742287   5.24550562   5.2635488    5.32384241   5.36140194
   5.52992896   5.53090793   5.60917184   5.84354551   5.8533048
   5.89303188   6.01656163   6.06776703   6.09071918   6.27356682
   6.28348733   6.62796875   7.09095834   9.25120675  12.77077026
  12.8250336   13.2620368   13.33879073  15.90161822]
  beta  mo_energy =
[-11.68929975 -11.66121915 -11.63253169 -11.62126901 -11.5224572
 -11.451489    -1.46111017  -1.32350903  -1.2708093   -1.0880394
  -1.07414063  -0.93174259  -0.89973449  -0.85278092  -0.82488022
  -0.76536107  -0.71747382  -0.70522366  -0.67728636  -0.54384556
  -0.34005725  -0.08322066  -0.05433283   0.05090302   0.10330207
   0.11933132   0.13583569   0.13890712   0.14931312   0.18906392
   0.22612365   0.23127899   0.24047495   0.25312764   0.25698768
   0.26725179   0.28961115   0.32075755   0.32157024   0.33885674
   0.34956348   0.35305031   0.39296964   0.40563473   0.40834326
   0.41557323   0.42640422   0.44717904   0.46383415   0.49267491
   0.51745976   0.5219058    0.53324201   0.54457154   0.55212748
   0.55900445   0.56473541   0.58885815   0.61151021   0.62139645
   0.62580524   0.67318031   0.71121749   0.75141467   0.75644193
   0.76300045   0.77550291   0.79443885   0.79933867   0.80413759
   0.89578643   0.91027419   0.92174378   0.98080044   0.98984795
   1.04067435   1.04492492   1.06069443   1.08526727   1.10434542
   1.11888708   1.12534288   1.15180577   1.18399874   1.18988354
   1.21130925   1.22450168   1.29493689   1.31011894   1.31392231
   1.31611253   1.33740274   1.34659802   1.36494739   1.36809461
   1.40300217   1.42554112   1.43769463   1.44600089   1.46759653
   1.47877683   1.48370014   1.53957441   1.56332538   1.59882787
   1.60682982   1.64457892   1.72705653   1.94362189   2.00384754
   2.01309894   2.04121224   2.04255863   2.06816845   2.08049347
   2.13322269   2.14292721   2.19102039   2.20339335   2.23138154
   2.2385764    2.24407738   2.3025425    2.3140681    2.40305501
   2.46629605   2.47975047   2.51108516   2.53390831   2.55412394
   2.57241159   2.64016169   2.66028135   2.66179081   2.66682547
   2.69223308   2.71689344   2.74526687   2.76422741   2.76494191
   2.77520804   2.79878445   2.82301496   2.83230421   2.90135194
   2.91459009   2.93761571   2.94009024   2.95778483   2.9964362
   3.01950369   3.04650281   3.05101092   3.06053888   3.09345817
   3.13002555   3.13349632   3.14528907   3.14548637   3.15353263
   3.167674     3.16829086   3.17573173   3.21624117   3.22226632
   3.24313568   3.26112296   3.28629157   3.38415919   3.39466033
   3.41265574   3.43505083   3.44301175   3.46350377   3.47351006
   3.48416606   3.50120078   3.51820669   3.51838594   3.54063481
   3.55936818   3.68333031   3.70955208   3.71182913   3.74441908
   3.84813282   3.87254358   3.87406436   3.89891848   3.90674567
   3.91078912   3.92548102   3.93255694   3.93277004   3.93725744
   3.9505077    3.96650903   3.98100122   3.99777571   4.07357217
   4.11369618   4.13917992   4.14164577   4.15314905   4.18830855
   4.19158175   4.22662105   4.23875406   4.27459322   4.28989198
   4.35166706   4.35618043   4.36598128   4.37005673   4.37796573
   4.39281087   4.4034585    4.42620646   4.43290629   4.47249346
   4.4784566    4.52592975   4.55848788   4.68089268   4.6935086
   4.71665673   4.78946194   4.8054581    4.80913228   4.81708235
   4.89947241   4.91363707   4.94016903   4.94544057   4.95772541
   5.06622923   5.13996835   5.16291497   5.17935114   5.21046085
   5.21733164   5.24565851   5.26352309   5.32405197   5.36145424
   5.52992546   5.53085031   5.60918437   5.84355646   5.85324604
   5.89295064   6.01677946   6.06778153   6.09073102   6.2736737
   6.28356943   6.6280157    7.09105125   9.25127991  12.77094346
  12.82510346  13.26225719  13.33874909  15.90175419]
multiplicity <S^2> = 0.00016544209  2S+1 = 1.0003308
E1 = -699.5991740017782  Ecoul = 268.23927181926103
macro= 0  E= -227.719836205682  delta_E= -1.42473  |g|= 1.34499  3 KF 15 JK
    CPU time for cycle= 1    378.96 sec, wall time    378.97 sec
    |g|= 1.33 (keyframe), |g-correction|= 0.0635
    CPU time for vj and vk     24.77 sec, wall time     24.77 sec
Negative hessians found [-0.84711784]
    imic 1(1)  |g|= 1.32  |dxi|= 0.0953  max(|x|)= 1.26  |dr|= 0.0953  eig= -1.02  seig= 0.00909
    CPU time for vj and vk     25.26 sec, wall time     25.26 sec
Negative hessians found [-1.1241455  -0.81894611]
    imic 2(2)  |g|= 1.32  |dxi|= 0.0672  max(|x|)= 2.65  |dr|= 0.148  eig= -1.17  seig= 0.00898
    CPU time for vj and vk     25.04 sec, wall time     25.04 sec
Negative hessians found [-1.19085966 -0.84494624 -0.29945743]
    imic 3(3)  |g|= 1.32  |dxi|= 0.0628  max(|x|)= 2.88  |dr|= 0.201  eig= -1.24  seig= 0.00884
    CPU time for vj and vk     24.88 sec, wall time     24.88 sec
Negative hessians found [-1.1909096  -0.9274455  -0.82776818 -0.28286778]
    imic 4(4)  |g|= 1.32  |dxi|= 0.0697  max(|x|)= 1.87  |dr|= 0.267  eig= -1.29  seig= 0.00882
    CPU time for vj and vk     25.11 sec, wall time     25.11 sec
Negative hessians found [-1.46066697 -1.19055996 -0.8534658  -0.35760946]
    imic 5(5)  |g|= 1.33  |dxi|= 0.0707  max(|x|)= 1.63  |dr|= 0.336  eig= -1.34  seig= 0.00665
    CPU time for vj and vk     24.84 sec, wall time     24.84 sec
Negative hessians found [-1.46118877 -1.20098276 -0.86236314 -0.37089941]
    imic 6(6)  |g|= 1.34  |dxi|= 0.075  max(|x|)=  1.3  |dr|= 0.41  eig= -1.41  seig= 0.00372
    CPU time for vj and vk     25.02 sec, wall time     25.02 sec
E1 = -701.1002406282792  Ecoul = 269.3009153949181
Adjust keyframe g_orb to |g|= 1.27  |g-correction|=0.103  E=-228.159259257 dE=-0.43942
    CPU time for vj and vk     24.69 sec, wall time     24.69 sec
Negative hessians found [-1.46120693 -1.20347254 -0.87858359 -0.37169711 -0.20224085]
    imic 7(7)  |g|= 1.28  |dxi|= 0.0721  max(|x|)=  1.4  |dr|= 0.0721  eig= -1.4  seig= 0.00101
    CPU time for vj and vk     24.59 sec, wall time     24.59 sec
Negative hessians found [-1.46147899 -1.20405302 -1.00838779 -0.87346029 -0.34678313]
    imic 8(8)  |g|= 1.29  |dxi|= 0.0526  max(|x|)= 6.36  |dr|= 0.101  eig= -1.46  seig= 0.000474
    CPU time for vj and vk     24.78 sec, wall time     24.78 sec
Negative hessians found [-1.47870997 -1.20406616 -1.01127342 -0.87381633 -0.36821736]
    imic 9(9)  |g|=  1.3  |dxi|= 0.0648  max(|x|)= 2.11  |dr|= 0.162  eig= -1.51  seig= 0.000474
    CPU time for vj and vk     24.73 sec, wall time     24.73 sec
Negative hessians found [-1.47950936 -1.2042813  -1.01909806 -0.87888526 -0.53643691 -0.17346487]
    imic 10(10)  |g|= 1.32  |dxi|= 0.0711  max(|x|)= 1.57  |dr|= 0.233  eig= -1.57  seig= 0.000365
    CPU time for vj and vk     24.46 sec, wall time     24.46 sec
Negative hessians found [-1.47952947 -1.20432206 -1.02732193 -0.95688472 -0.80497835 -0.17830014]
    imic 11(11)  |g|= 1.35  |dxi|= 0.074  max(|x|)= 1.36  |dr|= 0.307  eig= -1.64  seig= 7.93e-05
    CPU time for vj and vk     24.20 sec, wall time     24.20 sec
Negative hessians found [-1.47955837 -1.20508568 -1.12095723 -0.97888148 -0.84904776 -0.37312315
 -0.15994161]
    imic 12(12)  |g|= 1.39  |dxi|= 0.0752  max(|x|)= 1.24  |dr|= 0.382  eig= -1.72  seig= 9.35e-06
    tot inner=12  14 JK  |g|= 1.39  |u-1|= 0.382
    CPU time for aug_hess in 12 inner iters    347.33 sec, wall time    347.47 sec
    CPU time for vj and vk     24.90 sec, wall time     24.90 sec
  alpha nocc = 21  HOMO = -0.318804729764001  LUMO = -0.0988973207305733
  beta  nocc = 21  HOMO = -0.275906891654842  LUMO = -0.0281303296564949
  alpha mo_energy =
[-11.59691528 -11.57147382 -11.54484052 -11.52089997 -11.42147942
 -11.36997462  -1.38663664  -1.2544722   -1.20463769  -1.02804602
  -1.01519503  -0.88178287  -0.83209912  -0.8046646   -0.78201653
  -0.71391131  -0.66782554  -0.65535874  -0.63919464  -0.5038192
  -0.31880473  -0.09889732  -0.02825148   0.08002554   0.11373015
   0.13761712   0.15357807   0.16191362   0.16840941   0.19771976
   0.26302904   0.26655718   0.27539356   0.29114246   0.29921698
   0.30415414   0.31738803   0.3484655    0.36037321   0.37479202
   0.38003896   0.38990116   0.43384264   0.44245906   0.44607232
   0.45179374   0.4549938    0.47018988   0.49241369   0.52120864
   0.53596011   0.54726039   0.55311608   0.57555881   0.58045711
   0.58948709   0.59811207   0.60961805   0.64297103   0.64689434
   0.66999024   0.71301508   0.74746826   0.78897675   0.79296966
   0.80499685   0.81255629   0.83013402   0.83129269   0.84929385
   0.92906101   0.93744115   0.9595796    1.01892244   1.02755409
   1.0786948    1.07961632   1.0981301    1.12087252   1.12562916
   1.15553956   1.16266937   1.18311714   1.21068181   1.22424886
   1.24194371   1.26187875   1.3436707    1.35194753   1.35450988
   1.36256907   1.37385367   1.37999034   1.39403886   1.40043365
   1.44135293   1.4617138    1.47518015   1.48034407   1.49367566
   1.50829398   1.51760649   1.57527637   1.59572316   1.63272609
   1.64101809   1.67842498   1.76217611   1.97581322   2.04644513
   2.05408099   2.09959323   2.10400921   2.1058818    2.13322976
   2.18493124   2.20575846   2.25304737   2.2611261    2.28924146
   2.29622098   2.29819538   2.36212229   2.3807178    2.46046002
   2.53047261   2.54176696   2.56618684   2.59402776   2.60831398
   2.63356492   2.70716321   2.71907463   2.72285002   2.72728971
   2.75559673   2.78030392   2.80073838   2.82472016   2.82878226
   2.83120589   2.85723266   2.88307227   2.89067479   2.95393677
   2.96943717   2.98685095   3.00184656   3.0189838    3.05020228
   3.08632361   3.10332003   3.11142214   3.12192174   3.15434684
   3.18275779   3.18754346   3.20424351   3.20763145   3.21299769
   3.21657297   3.22790011   3.22832239   3.26905812   3.27625008
   3.29316338   3.29826924   3.33654557   3.43577247   3.45159255
   3.45604132   3.48454356   3.48997389   3.50988989   3.52715624
   3.53384151   3.54468591   3.55758691   3.56409926   3.57977503
   3.60910609   3.73811548   3.75527337   3.75654273   3.7809335
   3.91398317   3.92344506   3.93289772   3.94452568   3.94639313
   3.95978218   3.96054996   3.96661244   3.96851356   3.98959392
   3.9969343    4.00711993   4.02434603   4.03213474   4.09366328
   4.13556383   4.18290099   4.19564906   4.19875075   4.24989037
   4.2619122    4.27705059   4.28598161   4.31153617   4.31723104
   4.39297196   4.39949706   4.40280294   4.40483499   4.41636555
   4.45058583   4.45979102   4.48262187   4.48938915   4.52023838
   4.52376633   4.55328498   4.58630016   4.7276986    4.74086333
   4.75690463   4.85540167   4.86037254   4.86649097   4.87048562
   4.95091182   4.96570466   4.97707035   4.98345393   4.99882896
   5.11402708   5.18204787   5.20596419   5.22423806   5.25038363
   5.25993392   5.28337215   5.30489119   5.36827446   5.40265122
   5.57917148   5.58007281   5.65706405   5.89899941   5.90644123
   5.93991282   6.07142521   6.12137617   6.15761079   6.33181136
   6.34097073   6.68315727   7.15032338   9.30779405  12.84116016
  12.89429232  13.33742022  13.41184762  15.97815561]
  beta  mo_energy =
[-1.15970893e+01 -1.15720684e+01 -1.15417527e+01 -1.15196753e+01
 -1.14194162e+01 -1.13690886e+01 -1.38442003e+00 -1.24834895e+00
 -1.20118905e+00 -1.02159624e+00 -1.01230832e+00 -8.80611185e-01
 -8.30774394e-01 -8.00420525e-01 -7.80843842e-01 -7.12143971e-01
 -6.66544342e-01 -6.40062467e-01 -6.36059465e-01 -4.83994491e-01
 -2.75906892e-01 -2.81303297e-02  4.33359673e-03  7.90402356e-02
  1.11095979e-01  1.34953216e-01  1.51635332e-01  1.58295511e-01
  1.90521045e-01  1.98531878e-01  2.61014610e-01  2.65790969e-01
  2.74372996e-01  2.87196095e-01  2.91893961e-01  3.06333947e-01
  3.16238390e-01  3.50879100e-01  3.59178531e-01  3.77745297e-01
  3.79944204e-01  3.91634750e-01  4.35268120e-01  4.43427142e-01
  4.48776328e-01  4.54140969e-01  4.58320629e-01  4.77913672e-01
  4.92324862e-01  5.20929040e-01  5.37724845e-01  5.42879669e-01
  5.58781683e-01  5.73890199e-01  5.80170641e-01  5.88022460e-01
  5.95448559e-01  6.09279079e-01  6.38631860e-01  6.44877495e-01
  6.78639771e-01  7.13724968e-01  7.50301142e-01  7.89108431e-01
  7.89899701e-01  8.04360340e-01  8.11688624e-01  8.33512271e-01
  8.36612507e-01  8.49559437e-01  9.21008747e-01  9.32977275e-01
  9.59252462e-01  1.01405072e+00  1.01861980e+00  1.08129896e+00
  1.08383113e+00  1.09800258e+00  1.12067244e+00  1.12568377e+00
  1.15679206e+00  1.16344609e+00  1.18340579e+00  1.21120794e+00
  1.22495341e+00  1.24138853e+00  1.26250929e+00  1.34395280e+00
  1.35634856e+00  1.35885916e+00  1.36255765e+00  1.37362550e+00
  1.38047597e+00  1.39381718e+00  1.40192146e+00  1.44220775e+00
  1.46489753e+00  1.47543858e+00  1.48169363e+00  1.49277320e+00
  1.50951032e+00  1.51806016e+00  1.57658217e+00  1.59639507e+00
  1.63546594e+00  1.64197890e+00  1.68084103e+00  1.76176223e+00
  1.97621064e+00  2.04701358e+00  2.05447762e+00  2.09899428e+00
  2.10245796e+00  2.11024271e+00  2.13322672e+00  2.18511681e+00
  2.21086432e+00  2.25536727e+00  2.26528298e+00  2.28984272e+00
  2.29803618e+00  2.30104860e+00  2.36984018e+00  2.38403302e+00
  2.46171014e+00  2.53197812e+00  2.54318381e+00  2.56755071e+00
  2.59786261e+00  2.60938089e+00  2.63893878e+00  2.70725244e+00
  2.71830276e+00  2.72578197e+00  2.72731951e+00  2.75805139e+00
  2.78123460e+00  2.80406818e+00  2.82510226e+00  2.83056092e+00
  2.83391306e+00  2.85823036e+00  2.88446234e+00  2.89071816e+00
  2.95477794e+00  2.97119563e+00  2.98873289e+00  3.00304654e+00
  3.02350620e+00  3.05277832e+00  3.08838205e+00  3.10389281e+00
  3.11376366e+00  3.12401498e+00  3.15756333e+00  3.18410961e+00
  3.18812516e+00  3.20592288e+00  3.20804274e+00  3.21376609e+00
  3.21725485e+00  3.22887939e+00  3.22941359e+00  3.27225782e+00
  3.27878733e+00  3.29485002e+00  3.29835501e+00  3.33740322e+00
  3.43824381e+00  3.45338529e+00  3.45782862e+00  3.48634164e+00
  3.49206829e+00  3.50994300e+00  3.52894283e+00  3.53645353e+00
  3.54526583e+00  3.55812931e+00  3.56677692e+00  3.57980600e+00
  3.60908831e+00  3.73908062e+00  3.75542854e+00  3.75659333e+00
  3.78144548e+00  3.91412424e+00  3.92512425e+00  3.93473399e+00
  3.94567265e+00  3.94651843e+00  3.95980494e+00  3.96153462e+00
  3.96674956e+00  3.96880630e+00  3.99009863e+00  3.99778357e+00
  4.00737066e+00  4.02522967e+00  4.03201963e+00  4.09352887e+00
  4.13450107e+00  4.18298748e+00  4.19578912e+00  4.19974671e+00
  4.25117023e+00  4.26238242e+00  4.27726856e+00  4.28726937e+00
  4.31155077e+00  4.31673755e+00  4.39275123e+00  4.39965804e+00
  4.40298017e+00  4.40443975e+00  4.41581061e+00  4.45138667e+00
  4.46197194e+00  4.48422110e+00  4.49149592e+00  4.52032890e+00
  4.52383802e+00  4.55324787e+00  4.58570566e+00  4.72775805e+00
  4.74096610e+00  4.75700810e+00  4.85603043e+00  4.86117010e+00
  4.86820952e+00  4.87088445e+00  4.95201085e+00  4.96732768e+00
  4.97713713e+00  4.98353349e+00  5.00013870e+00  5.11391454e+00
  5.18245219e+00  5.20664474e+00  5.22436970e+00  5.25058262e+00
  5.26107825e+00  5.28344760e+00  5.30490825e+00  5.36853088e+00
  5.40272849e+00  5.57902938e+00  5.58007664e+00  5.65809409e+00
  5.89898027e+00  5.90634012e+00  5.93963547e+00  6.07162157e+00
  6.12144456e+00  6.15764266e+00  6.33202606e+00  6.34118725e+00
  6.68319635e+00  7.15057035e+00  9.30828741e+00  1.28417697e+01
  1.28950823e+01  1.33382158e+01  1.34127625e+01  1.59790554e+01]
multiplicity <S^2> = 0.053955621  2S+1 = 1.1026434
E1 = -703.2202660118157  Ecoul = 270.9197959716648
macro= 1  E= -228.660404063316  delta_E= -0.940568  |g|= 1.26812  2 KF 14 JK
    CPU time for cycle= 2    347.44 sec, wall time    347.59 sec
    |g|= 1.16 (keyframe), |g-correction|= 0.306
    CPU time for vj and vk     24.55 sec, wall time     24.56 sec
Negative hessians found [-0.1599836]
    imic 1(1)  |g|= 1.13  |dxi|= 0.0752  max(|x|)= 0.741  |dr|= 0.0752  eig= -0.824  seig= 0.00566
    CPU time for vj and vk     24.87 sec, wall time     24.87 sec
Negative hessians found [-0.64539827 -0.0709914 ]
    imic 2(2)  |g|= 1.12  |dxi|= 0.082  max(|x|)= 0.879  |dr|= 0.149  eig= -0.965  seig= 0.0055
    CPU time for vj and vk     24.80 sec, wall time     24.80 sec
Negative hessians found [-0.98231017 -0.64539409 -0.01684012]
    imic 3(3)  |g|= 1.11  |dxi|= 0.0902  max(|x|)= 1.09  |dr|= 0.225  eig= -1.03  seig= 0.00529
    CPU time for vj and vk     24.94 sec, wall time     24.94 sec
Negative hessians found [-1.17557551 -0.73538152 -0.01711189]
    imic 4(4)  |g|= 1.12  |dxi|= 0.0511  max(|x|)= 5.13  |dr|= 0.249  eig= -1.19  seig= 0.00526
    CPU time for vj and vk     24.74 sec, wall time     24.75 sec
Negative hessians found [-1.19109964 -0.76110621 -0.02068192]
    imic 5(5)  |g|= 1.12  |dxi|= 0.0521  max(|x|)=  3.3  |dr|= 0.284  eig= -1.23  seig= 0.00523
    CPU time for vj and vk     24.53 sec, wall time     24.54 sec
Negative hessians found [-1.19185003 -0.76274456 -0.02375155]
    imic 6(6)  |g|= 1.13  |dxi|= 0.0534  max(|x|)= 2.54  |dr|= 0.327  eig= -1.27  seig= 0.000957
    CPU time for vj and vk     24.74 sec, wall time     24.74 sec
E1 = -705.1085234599152  Ecoul = 272.3766798319817
Adjust keyframe g_orb to |g|= 1.07  |g-correction|=0.0715  E=-229.091777651 dE=-0.43137
    CPU time for vj and vk     24.27 sec, wall time     24.27 sec
Negative hessians found [-1.19197562 -0.79016312 -0.10400807]
    imic 7(7)  |g|= 1.08  |dxi|= 0.0526  max(|x|)= 2.69  |dr|= 0.0526  eig= -1.27  seig= 0.00014
    CPU time for vj and vk     24.15 sec, wall time     24.15 sec
Negative hessians found [-1.19201892 -0.8287787  -0.16722656]
    imic 8(8)  |g|=  1.1  |dxi|= 0.0532  max(|x|)= 2.32  |dr|= 0.106  eig= -1.31  seig= 3.4e-05
    CPU time for vj and vk     23.91 sec, wall time     23.91 sec
Negative hessians found [-1.19228891 -0.83316162 -0.28318083 -0.16049268]
    imic 9(9)  |g|= 1.11  |dxi|= 0.0536  max(|x|)= 2.08  |dr|= 0.159  eig= -1.35  seig= 5.7e-06
    CPU time for vj and vk     23.93 sec, wall time     23.93 sec
Negative hessians found [-1.19243611 -0.8331778  -0.41040854 -0.19680638]
    imic 10(10)  |g|= 1.13  |dxi|= 0.0538  max(|x|)= 1.92  |dr|= 0.213  eig= -1.4  seig= 3.74e-06
    CPU time for vj and vk     23.73 sec, wall time     23.73 sec
Negative hessians found [-1.19247408 -0.83407342 -0.51003445 -0.28782094]
    imic 11(11)  |g|= 1.15  |dxi|= 0.054  max(|x|)= 1.81  |dr|= 0.267  eig= -1.44  seig= 6.76e-07
    CPU time for vj and vk     23.45 sec, wall time     23.45 sec
Negative hessians found [-1.19248115 -0.83425806 -0.58652994 -0.36180118 -0.02200978]
    imic 12(12)  |g|= 1.18  |dxi|= 0.0541  max(|x|)= 1.72  |dr|= 0.321  eig= -1.49  seig= 1.44e-07
    tot inner=12  14 JK  |g|= 1.18  |u-1|= 0.321
    CPU time for aug_hess in 12 inner iters    341.68 sec, wall time    341.81 sec
    CPU time for vj and vk     24.79 sec, wall time     24.79 sec
  alpha nocc = 21  HOMO = -0.30572229784433  LUMO = -0.0491303404426974
  beta  nocc = 21  HOMO = -0.283839032720871  LUMO = 0.0147119141782764
  alpha mo_energy =
[-11.53837098 -11.46452736 -11.4125044  -11.37331677 -11.33699236
 -11.32732405  -1.30853302  -1.16726795  -1.1390222   -0.95937313
  -0.94945621  -0.83014352  -0.75602417  -0.75007348  -0.71343928
  -0.66795521  -0.60307876  -0.59668706  -0.59026882  -0.45223465
  -0.3057223   -0.04913034   0.03284421   0.10288769   0.13451475
   0.15151734   0.17220659   0.17764058   0.20324023   0.21934729
   0.29132873   0.30029141   0.3209224    0.33688556   0.34250744
   0.34692709   0.34938449   0.392404     0.40621891   0.4080224
   0.42943203   0.43284785   0.47107657   0.48806954   0.49200216
   0.49662354   0.50125531   0.51221297   0.52029679   0.54733743
   0.5718895    0.5772035    0.5866972    0.60234359   0.60536903
   0.62931847   0.63585263   0.64065595   0.67544871   0.68203678
   0.72533282   0.76197129   0.78632418   0.8262214    0.8323991
   0.85133651   0.87239576   0.87302601   0.87554813   0.90368434
   0.96205604   0.96844005   1.00052785   1.05163413   1.06471552
   1.12142564   1.12262172   1.14163654   1.15597814   1.15760564
   1.20048938   1.20986248   1.22042069   1.24398452   1.25974748
   1.2838758    1.30192467   1.39714812   1.40292206   1.40489205
   1.40840696   1.41234008   1.42228367   1.43001058   1.44110866
   1.49024279   1.50594575   1.51165267   1.52420526   1.53099466
   1.54634452   1.55581674   1.62551144   1.64242618   1.67395474
   1.67746282   1.72145891   1.80424123   2.01233261   2.09293846
   2.0956759    2.14390222   2.16385937   2.17577817   2.18918162
   2.24473467   2.28786493   2.32111586   2.32368087   2.3510341
   2.35835453   2.38369703   2.42060041   2.4574383    2.52349471
   2.60213917   2.60801078   2.64062249   2.66058349   2.66751497
   2.70484758   2.76941998   2.78312933   2.79679883   2.80425026
   2.82035394   2.84225693   2.8735521    2.88912441   2.8937022
   2.91718629   2.91857288   2.94605181   2.95799406   2.99959044
   3.04047826   3.04463823   3.05755031   3.10588244   3.11130865
   3.1604669    3.17136705   3.18255733   3.1882701    3.21722625
   3.2466394    3.25001816   3.2625033    3.26455098   3.27389601
   3.2858835    3.29086453   3.30100793   3.32182339   3.33994545
   3.34244046   3.35001036   3.39360665   3.49660793   3.5044027
   3.51506365   3.53843003   3.54495834   3.56660181   3.58189793
   3.59165867   3.59834271   3.60881028   3.61533919   3.62321346
   3.66256848   3.79991614   3.80423155   3.80725932   3.82459817
   3.97261824   3.98043301   3.98564362   3.99637733   3.99751504
   4.00122765   4.01492855   4.01721085   4.0206799    4.04310152
   4.0432453    4.05658344   4.07315316   4.07582594   4.13126722
   4.15873195   4.23043802   4.23960728   4.25428417   4.32301551
   4.32924256   4.34029065   4.34832308   4.34990332   4.35014445
   4.42663775   4.44023383   4.44820566   4.45121971   4.46950625
   4.51780543   4.53122152   4.54269991   4.55543582   4.56812396
   4.57191848   4.60022431   4.6207456    4.78203332   4.79274232
   4.80092554   4.90329883   4.92898365   4.93316649   4.94009105
   5.01162602   5.02104424   5.02597964   5.02895189   5.04956619
   5.16535775   5.22892731   5.26327156   5.27580288   5.29276981
   5.30314824   5.33060974   5.34635851   5.42725255   5.44926065
   5.63290327   5.63370611   5.71363173   5.95759809   5.96107821
   5.99967991   6.13658363   6.17356471   6.2300121    6.39715388
   6.40411929   6.7441204    7.21549556   9.36930842  12.9217074
  12.9605981   13.42835613  13.4804853   16.05910486]
  beta  mo_energy =
[-1.15389634e+01 -1.14665364e+01 -1.14110187e+01 -1.13702039e+01
 -1.13346060e+01 -1.13257565e+01 -1.31077005e+00 -1.16341403e+00
 -1.13584155e+00 -9.53209248e-01 -9.46987326e-01 -8.30781684e-01
 -7.55130821e-01 -7.45507828e-01 -7.14074003e-01 -6.66869864e-01
 -6.01656832e-01 -5.91435136e-01 -5.86320274e-01 -4.32431290e-01
 -2.83839033e-01  1.47119142e-02  4.85235482e-02  9.94105431e-02
  1.27868630e-01  1.47959470e-01  1.68941255e-01  1.74981547e-01
  2.03120891e-01  2.40428111e-01  2.86736526e-01  2.98671135e-01
  3.14070604e-01  3.33198754e-01  3.40131322e-01  3.42631875e-01
  3.48275522e-01  3.96171167e-01  4.04995032e-01  4.08346462e-01
  4.29732519e-01  4.31714905e-01  4.70393252e-01  4.89966529e-01
  4.95039435e-01  4.99942193e-01  5.11437391e-01  5.13951290e-01
  5.18712331e-01  5.46571587e-01  5.73484355e-01  5.75369116e-01
  5.94559245e-01  6.02097236e-01  6.05883070e-01  6.25230233e-01
  6.33331290e-01  6.42102445e-01  6.74252044e-01  6.80298774e-01
  7.31869324e-01  7.61602162e-01  7.88887285e-01  8.25380426e-01
  8.30089267e-01  8.51873566e-01  8.72377379e-01  8.75811863e-01
  8.81710411e-01  9.03510347e-01  9.58504208e-01  9.65916195e-01
  9.99795214e-01  1.05074464e+00  1.05856072e+00  1.12269291e+00
  1.12672580e+00  1.14129811e+00  1.15717649e+00  1.15798215e+00
  1.20136194e+00  1.20972720e+00  1.22045600e+00  1.24461389e+00
  1.25997082e+00  1.28356323e+00  1.30211808e+00  1.39741802e+00
  1.40702527e+00  1.40790865e+00  1.40867123e+00  1.41150539e+00
  1.42198953e+00  1.43030000e+00  1.44282780e+00  1.49014100e+00
  1.50927327e+00  1.51126705e+00  1.52366885e+00  1.53266791e+00
  1.54795359e+00  1.55627886e+00  1.62631568e+00  1.64372331e+00
  1.67528972e+00  1.68023392e+00  1.72398177e+00  1.80525536e+00
  2.01251528e+00  2.09312724e+00  2.09569067e+00  2.14346468e+00
  2.16308876e+00  2.17648010e+00  2.18931104e+00  2.24491312e+00
  2.29348154e+00  2.32337669e+00  2.32503692e+00  2.35107130e+00
  2.35850662e+00  2.38839071e+00  2.42922773e+00  2.46010402e+00
  2.52304984e+00  2.60360139e+00  2.60893483e+00  2.64225537e+00
  2.66331345e+00  2.66877045e+00  2.70991221e+00  2.76871991e+00
  2.78284476e+00  2.79813166e+00  2.80417204e+00  2.82227256e+00
  2.84161092e+00  2.87777797e+00  2.88854265e+00  2.89619456e+00
  2.91794428e+00  2.92016703e+00  2.94780117e+00  2.95807468e+00
  2.99963813e+00  3.04180569e+00  3.04679833e+00  3.05720697e+00
  3.10905273e+00  3.11467805e+00  3.16132330e+00  3.17030329e+00
  3.18465906e+00  3.19025700e+00  3.22139821e+00  3.24754953e+00
  3.25011913e+00  3.26299290e+00  3.26594987e+00  3.27413351e+00
  3.28718178e+00  3.29146532e+00  3.30127683e+00  3.32509484e+00
  3.34021243e+00  3.34535604e+00  3.35166876e+00  3.39455507e+00
  3.49808752e+00  3.50583878e+00  3.51631784e+00  3.54130252e+00
  3.54622129e+00  3.56667193e+00  3.58397050e+00  3.59190587e+00
  3.60162884e+00  3.60968254e+00  3.61793909e+00  3.62329843e+00
  3.66266566e+00  3.80078637e+00  3.80420590e+00  3.80728468e+00
  3.82485477e+00  3.97342514e+00  3.98029286e+00  3.98571945e+00
  3.99747966e+00  3.99821944e+00  4.00286073e+00  4.01506132e+00
  4.01809408e+00  4.02080679e+00  4.04289176e+00  4.04361757e+00
  4.05768435e+00  4.07387706e+00  4.07623326e+00  4.13128337e+00
  4.15811323e+00  4.23034889e+00  4.23970139e+00  4.25434235e+00
  4.32281633e+00  4.33078067e+00  4.34051482e+00  4.34840113e+00
  4.35029403e+00  4.35077200e+00  4.42614275e+00  4.44039697e+00
  4.44849137e+00  4.45139177e+00  4.46910979e+00  4.51775151e+00
  4.53340523e+00  4.54410159e+00  4.55804621e+00  4.56773078e+00
  4.57205832e+00  4.60051821e+00  4.62050839e+00  4.78198477e+00
  4.79293175e+00  4.80098678e+00  4.90353644e+00  4.92956682e+00
  4.93505829e+00  4.94049130e+00  5.01261325e+00  5.02108001e+00
  5.02609977e+00  5.02984823e+00  5.05168878e+00  5.16514918e+00
  5.22918131e+00  5.26366146e+00  5.27591281e+00  5.29294676e+00
  5.30456887e+00  5.33070162e+00  5.34649373e+00  5.42759908e+00
  5.44950307e+00  5.63264740e+00  5.63372622e+00  5.71466800e+00
  5.95734710e+00  5.96095636e+00  5.99974722e+00  6.13662576e+00
  6.17371862e+00  6.23006652e+00  6.39735226e+00  6.40434911e+00
  6.74418923e+00  7.21572783e+00  9.36975974e+00  1.29220467e+01
  1.29614335e+01  1.34288811e+01  1.34817236e+01  1.60600235e+01]
multiplicity <S^2> = 0.12139907  2S+1 = 1.2188504
E1 = -706.9282558967666  Ecoul = 273.8214125791684
macro= 2  E= -229.466777340763  delta_E= -0.806373  |g|= 1.07455  2 KF 14 JK
    CPU time for cycle= 3    341.57 sec, wall time    341.70 sec
    |g|= 1.01 (keyframe), |g-correction|= 0.206
    CPU time for vj and vk     24.41 sec, wall time     24.41 sec
Negative hessians found [-0.18736257]
    imic 1(1)  |g|= 0.996  |dxi|= 0.0541  max(|x|)= 1.06  |dr|= 0.0541  eig= -0.767  seig= 0.00293
    CPU time for vj and vk     24.74 sec, wall time     24.74 sec
Negative hessians found [-0.22200921]
    imic 2(2)  |g|= 0.98  |dxi|= 0.0561  max(|x|)= 1.04  |dr|= 0.11  eig= -0.816  seig= 0.00292
    CPU time for vj and vk     24.54 sec, wall time     24.54 sec
Negative hessians found [-0.36340794]
    imic 3(3)  |g|= 0.967  |dxi|= 0.0559  max(|x|)=  1.1  |dr|= 0.165  eig= -0.834  seig= 0.00284
    CPU time for vj and vk     24.43 sec, wall time     24.43 sec
Negative hessians found [-0.47617936]
    imic 4(4)  |g|= 0.958  |dxi|= 0.0557  max(|x|)= 1.13  |dr|= 0.22  eig= -0.851  seig= 0.00067
    CPU time for vj and vk     24.32 sec, wall time     24.32 sec
Negative hessians found [-0.54683207]
    imic 5(5)  |g|= 0.951  |dxi|= 0.0552  max(|x|)= 1.17  |dr|= 0.275  eig= -0.869  seig= 0.000233
    CPU time for vj and vk     24.19 sec, wall time     24.19 sec
Negative hessians found [-0.56604886]
    imic 6(6)  |g|= 0.946  |dxi|= 0.0549  max(|x|)= 1.19  |dr|= 0.33  eig= -0.888  seig= 6.8e-05
    CPU time for vj and vk     24.73 sec, wall time     24.73 sec
E1 = -709.0426069943749  Ecoul = 275.49876644200003
Adjust keyframe g_orb to |g|= 0.879  |g-correction|=0.0925  E=-229.903774576 dE=-0.437
    CPU time for vj and vk     24.00 sec, wall time     24.01 sec
Negative hessians found [-0.57080872 -0.17458118]
    imic 7(7)  |g|= 0.876  |dxi|= 0.0549  max(|x|)= 1.27  |dr|= 0.0549  eig= -0.827  seig= 1.78e-05
    CPU time for vj and vk     23.90 sec, wall time     23.90 sec
Negative hessians found [-0.57088045 -0.2531452 ]
    imic 8(8)  |g|= 0.874  |dxi|= 0.0549  max(|x|)= 1.27  |dr|= 0.11  eig= -0.848  seig= 1.78e-05
    CPU time for vj and vk     23.75 sec, wall time     23.75 sec
Negative hessians found [-0.57093411 -0.29567562]
    imic 9(9)  |g|= 0.875  |dxi|= 0.0548  max(|x|)= 1.27  |dr|= 0.165  eig= -0.869  seig= 4.34e-06
    CPU time for vj and vk     23.70 sec, wall time     23.70 sec
Negative hessians found [-0.57214217 -0.31200052]
    imic 10(10)  |g|= 0.877  |dxi|= 0.0547  max(|x|)= 1.27  |dr|= 0.219  eig= -0.891  seig= 1.41e-06
    CPU time for vj and vk     23.57 sec, wall time     23.57 sec
Negative hessians found [-0.5744831  -0.36732852]
    imic 11(11)  |g|= 0.88  |dxi|= 0.0546  max(|x|)= 1.26  |dr|= 0.274  eig= -0.913  seig= 5.39e-07
    CPU time for vj and vk     23.54 sec, wall time     23.54 sec
Negative hessians found [-0.57577029 -0.40430565 -0.00893693]
    imic 12(12)  |g|= 0.885  |dxi|= 0.0546  max(|x|)= 1.26  |dr|= 0.328  eig= -0.936  seig= 2.27e-07
    tot inner=12  14 JK  |g|= 0.885  |u-1|= 0.328
    CPU time for aug_hess in 12 inner iters    338.78 sec, wall time    338.95 sec
    CPU time for vj and vk     24.69 sec, wall time     24.69 sec
  alpha nocc = 21  HOMO = -0.282866138559249  LUMO = 0.0321195349765996
  beta  nocc = 21  HOMO = -0.361988802201407  LUMO = 0.0668355247722566
  alpha mo_energy =
[-11.40332598 -11.34993719 -11.30782243 -11.27709544 -11.27460162
 -11.26680925  -1.21895147  -1.07699426  -1.07078226  -0.88511167
  -0.87870263  -0.7653695   -0.69078814  -0.6779765   -0.64201815
  -0.6229085   -0.53785847  -0.53359522  -0.53058485  -0.39444858
  -0.28286614   0.03211953   0.10029164   0.12232808   0.1562715
   0.16088785   0.18784964   0.1910816    0.21327426   0.27818043
   0.32415787   0.33337431   0.37094523   0.37330114   0.38904285
   0.3909607    0.39366717   0.44246792   0.44398291   0.46034089
   0.48008797   0.48764428   0.51374767   0.5337109    0.54039375
   0.54411601   0.55145589   0.55740696   0.57264003   0.57525182
   0.61108962   0.61332464   0.62577441   0.62645933   0.63011102
   0.67460186   0.6798892    0.68324642   0.71578852   0.71962572
   0.79099933   0.81785878   0.82761876   0.87001868   0.87264199
   0.90582384   0.92095147   0.92387163   0.94035078   0.96226598
   1.00068872   1.00376162   1.04610272   1.09038043   1.10151847
   1.16880193   1.1747973    1.18862447   1.19454395   1.19709824
   1.25408223   1.26256847   1.26401401   1.28210264   1.29282832
   1.33637584   1.34505183   1.44679917   1.45686402   1.46003869
   1.46121102   1.46349214   1.47191363   1.47322704   1.48303181
   1.54769867   1.55535838   1.55954354   1.56726035   1.58098243
   1.58878      1.59588938   1.6837287    1.69424967   1.71039947
   1.72949661   1.77135884   1.85263818   2.05479801   2.14323287
   2.14483609   2.18853304   2.23456131   2.24683766   2.26291396
   2.3058905    2.37486968   2.38964038   2.40218482   2.41861878
   2.42200744   2.47157915   2.48488141   2.53948721   2.5996299
   2.67806285   2.67950043   2.71805306   2.729611     2.73547677
   2.78263866   2.84244502   2.85077114   2.87651657   2.88188065
   2.89243367   2.92104407   2.94889472   2.95708811   2.96458711
   2.97919332   3.00319088   3.01266406   3.02811805   3.05695729
   3.10776756   3.11203449   3.14030508   3.17382959   3.18642079
   3.23853008   3.24641103   3.25787776   3.25975679   3.28333733
   3.31792316   3.32175096   3.32779375   3.32893152   3.33685302
   3.35208391   3.35583149   3.37894958   3.38373567   3.39081475
   3.40843262   3.40961173   3.45439539   3.5620078    3.56367435
   3.5733055    3.60079273   3.61305855   3.62713621   3.63655649
   3.64517416   3.66360777   3.66690307   3.67105753   3.67347251
   3.7222292    3.85893719   3.86159993   3.86696864   3.87653769
   4.02275874   4.02365604   4.05239415   4.05588628   4.05893108
   4.06119075   4.0703305    4.08022314   4.08191941   4.0841215
   4.09535274   4.12443746   4.12732799   4.12990899   4.17581122
   4.18802538   4.28417694   4.28802914   4.32252194   4.3788412
   4.38729291   4.39337087   4.40678807   4.41505997   4.4211961
   4.46508681   4.48319148   4.50149195   4.50301002   4.52693132
   4.59712082   4.60631337   4.61351722   4.62078563   4.62241495
   4.625963     4.65271083   4.66196401   4.8443124    4.84838148
   4.85178937   4.9573669    5.00489554   5.00611298   5.01149099
   5.07128289   5.07385446   5.07622015   5.08665579   5.11743453
   5.22281221   5.28407226   5.32948736   5.33138378   5.34225577
   5.34949237   5.38366128   5.3911273    5.4896241    5.49995299
   5.69233004   5.6928954    5.77596522   6.01959442   6.02568066
   6.05990845   6.20930368   6.22802969   6.30504967   6.46663841
   6.47007462   6.80881531   7.28449216   9.43436256  13.00859486
  13.02806883  13.52273656  13.54775873  16.14186084]
  beta  mo_energy =
[-11.40626503 -11.35398582 -11.3072384  -11.27425456 -11.2712816
 -11.26492049  -1.2295848   -1.08621051  -1.06759952  -0.88435189
  -0.87687604  -0.76630019  -0.68759594  -0.67808911  -0.64378816
  -0.62137137  -0.56023044  -0.53680105  -0.53056673  -0.37985813
  -0.3619888    0.06683552   0.0931193    0.12162823   0.1563354
   0.16125719   0.18797546   0.19405559   0.21759562   0.29027733
   0.32332938   0.33321139   0.36364967   0.37390566   0.38129067
   0.38900237   0.39322448   0.43871416   0.44529335   0.4571282
   0.47986959   0.48140857   0.51181879   0.53002173   0.54760744
   0.54885496   0.55293477   0.55546899   0.57271794   0.57459522
   0.61070348   0.61493534   0.62732292   0.62897074   0.6352623
   0.67700005   0.67733584   0.68427214   0.71640199   0.72060541
   0.78931424   0.81300532   0.82981881   0.86824721   0.87266916
   0.90736092   0.92195418   0.92666494   0.93958266   0.96125226
   1.00196928   1.00471122   1.04578969   1.08904831   1.10410822
   1.16720264   1.17527693   1.18877219   1.19659689   1.19719398
   1.25222597   1.26214847   1.26261      1.28310014   1.29304707
   1.33468921   1.34554825   1.44627349   1.456607     1.45999659
   1.46258978   1.46355779   1.47071534   1.47344232   1.48520289
   1.5444581    1.55679263   1.55770917   1.56637537   1.5824946
   1.59074207   1.59615831   1.68242022   1.69585886   1.71215552
   1.72995419   1.7726313    1.85360931   2.05492245   2.14311968
   2.14439461   2.18918842   2.23341218   2.24736547   2.25589368
   2.30558913   2.37247983   2.39025394   2.40018613   2.41716681
   2.42266908   2.46823582   2.49263188   2.53739211   2.59584572
   2.67653884   2.6792869    2.71712659   2.73053359   2.73489029
   2.78332439   2.84172957   2.85043263   2.87681723   2.87742704
   2.89219322   2.91726721   2.95037549   2.95808639   2.96212078
   2.97990705   3.00127983   3.01425185   3.02846789   3.05591993
   3.10768498   3.11288178   3.13517429   3.17437039   3.18870882
   3.2355945    3.24476252   3.25800725   3.25933141   3.28667191
   3.31675846   3.32083273   3.32813492   3.32948096   3.33656616
   3.35279158   3.35666348   3.37592895   3.38545349   3.39059104
   3.40917786   3.41120116   3.45511057   3.56173431   3.5632832
   3.57378857   3.60140086   3.6119394    3.62755592   3.63713118
   3.64545993   3.66537143   3.66736463   3.67255957   3.67334747
   3.72238595   3.85918367   3.86156064   3.86653159   3.87599194
   4.02257084   4.02350795   4.05242717   4.05623554   4.05851465
   4.06098881   4.07017954   4.07985887   4.0817272    4.08422438
   4.09624639   4.1248966    4.12723535   4.12982862   4.17572048
   4.18816523   4.28401704   4.28808382   4.32118075   4.37758944
   4.3871125    4.39345536   4.40667907   4.41644315   4.42096361
   4.46494779   4.48343548   4.5018335    4.50301249   4.52678816
   4.59444281   4.60661354   4.61327691   4.62042607   4.62427962
   4.62588349   4.65292461   4.66216683   4.8441839    4.84859339
   4.85187014   4.95652015   5.00552812   5.00645944   5.01170403
   5.07119006   5.07400877   5.07565979   5.08684084   5.118113
   5.22270333   5.28415069   5.32836915   5.33137061   5.34237557
   5.35085858   5.38371699   5.39144382   5.4898343    5.50040094
   5.69219071   5.69295396   5.77613375   6.01929984   6.02562263
   6.06023369   6.20904826   6.22847197   6.30516158   6.4668061
   6.47022523   6.80892332   7.28464887   9.43442392  13.00768757
  13.02894644  13.5216298   13.54915423  16.14208568]
multiplicity <S^2> = 0.17452183  2S+1 = 1.3031068
E1 = -710.7360856491073  Ecoul = 276.8387023981449
macro= 3  E= -230.257317274128  delta_E= -0.79054  |g|= 0.879247  2 KF 14 JK
    CPU time for cycle= 4    338.68 sec, wall time    338.85 sec
    |g|=  0.7 (keyframe), |g-correction|= 0.259
    CPU time for vj and vk     24.37 sec, wall time     24.37 sec
    imic 1(1)  |g|= 0.666  |dxi|= 0.0546  max(|x|)= 0.54  |dr|= 0.0546  eig= -0.272  seig= 0.00298
    CPU time for vj and vk     24.79 sec, wall time     24.79 sec
    imic 2(2)  |g|= 0.607  |dxi|= 0.073  max(|x|)= 0.422  |dr|= 0.123  eig= -0.338  seig= 0.00292
    CPU time for vj and vk     24.61 sec, wall time     24.61 sec
    imic 3(3)  |g|= 0.571  |dxi|= 0.0592  max(|x|)= 0.622  |dr|= 0.176  eig= -0.339  seig= 0.00292
    CPU time for vj and vk     25.08 sec, wall time     25.08 sec
Negative hessians found [-0.08342224]
    imic 4(4)  |g|= 0.547  |dxi|= 0.0554  max(|x|)= 0.79  |dr|= 0.226  eig= -0.338  seig= 0.0029
    CPU time for vj and vk     24.54 sec, wall time     24.54 sec
Negative hessians found [-0.1615384]
    imic 5(5)  |g|= 0.529  |dxi|= 0.0542  max(|x|)= 0.925  |dr|= 0.275  eig= -0.341  seig= 0.00288
    CPU time for vj and vk     24.36 sec, wall time     24.36 sec
Negative hessians found [-0.18078946]
    imic 6(6)  |g|= 0.514  |dxi|= 0.0538  max(|x|)= 0.991  |dr|= 0.324  eig= -0.344  seig= 0.000872
    CPU time for vj and vk     24.62 sec, wall time     24.62 sec
E1 = -712.1190688798206  Ecoul = 277.9384003050113
Adjust keyframe g_orb to |g|= 0.478  |g-correction|=0.053  E=-230.540602598 dE=-0.28329
    CPU time for vj and vk     24.30 sec, wall time     24.30 sec
Negative hessians found [-0.18601028]
    imic 7(7)  |g|= 0.465  |dxi|= 0.0536  max(|x|)=  1.1  |dr|= 0.0536  eig= -0.302  seig= 0.000232
    CPU time for vj and vk     24.10 sec, wall time     24.10 sec
Negative hessians found [-0.18682919]
    imic 8(8)  |g|= 0.453  |dxi|= 0.0538  max(|x|)= 1.12  |dr|= 0.107  eig= -0.307  seig= 0.000212
    CPU time for vj and vk     23.84 sec, wall time     23.84 sec
Negative hessians found [-0.18754802]
    imic 9(9)  |g|= 0.443  |dxi|= 0.0539  max(|x|)= 1.14  |dr|= 0.161  eig= -0.312  seig= 3.98e-05
    CPU time for vj and vk     23.61 sec, wall time     23.62 sec
Negative hessians found [-0.18778126]
    imic 10(10)  |g|= 0.434  |dxi|= 0.0539  max(|x|)= 1.16  |dr|= 0.215  eig= -0.317  seig= 6.15e-06
    CPU time for vj and vk     23.51 sec, wall time     23.51 sec
Negative hessians found [-0.18787288]
    imic 11(11)  |g|= 0.426  |dxi|= 0.0539  max(|x|)= 1.17  |dr|= 0.269  eig= -0.324  seig= 1.95e-06
    CPU time for vj and vk     23.48 sec, wall time     23.48 sec
Negative hessians found [-0.18795222]
    imic 12(12)  |g|= 0.419  |dxi|= 0.054  max(|x|)= 1.18  |dr|= 0.323  eig= -0.33  seig= 8.75e-07
    CPU time for vj and vk     24.55 sec, wall time     24.55 sec
E1 = -712.6644189684255  Ecoul = 278.35345868786743
Adjust keyframe g_orb to |g|= 0.346  |g-correction|=0.145  E=-230.670894304 dE=-0.13029
    CPU time for vj and vk     23.27 sec, wall time     23.27 sec
Negative hessians found [-0.18798012]
    imic 13(13)  |g|= 0.34  |dxi|= 0.0556  max(|x|)= 1.76  |dr|= 0.0556  eig= -0.224  seig= 2.84e-07
    CPU time for vj and vk     23.95 sec, wall time     23.96 sec
Negative hessians found [-0.18799097]
    imic 14(14)  |g|= 0.335  |dxi|= 0.0556  max(|x|)= 1.67  |dr|= 0.111  eig= -0.232  seig= 2.84e-07
    tot inner=14  17 JK  |g|= 0.335  |u-1|= 0.111
    CPU time for aug_hess in 14 inner iters    411.89 sec, wall time    412.08 sec
    CPU time for vj and vk     24.24 sec, wall time     24.24 sec
  alpha nocc = 21  HOMO = -0.352687590328792  LUMO = 0.107537299956638
  beta  nocc = 21  HOMO = -0.34679166686681  LUMO = 0.109525548954449
  alpha mo_energy =
[-11.29855109 -11.29586627 -11.26071548 -11.24849962 -11.24594993
 -11.24402292  -1.17547739  -1.03944603  -1.03430024  -0.84427436
  -0.8434984   -0.72608872  -0.65912916  -0.63815034  -0.60517893
  -0.59988463  -0.52418029  -0.50898414  -0.50747975  -0.3563042
  -0.35268759   0.1075373    0.11254569   0.14034588   0.16616258
   0.1680772    0.19742636   0.19924045   0.22027322   0.31450588
   0.35020925   0.35185124   0.38731976   0.40214252   0.40918347
   0.41079554   0.41733674   0.46138855   0.46463843   0.49291246
   0.50813844   0.50860237   0.54101497   0.55862108   0.56273442
   0.5747681    0.57519354   0.58445227   0.58826185   0.60771279
   0.63216517   0.63297522   0.63688387   0.63834794   0.65465866
   0.6935014    0.71050432   0.71129151   0.73691509   0.73841516
   0.82560149   0.8461287    0.8500691    0.89515631   0.89596605
   0.93366024   0.94626535   0.94759734   0.97694376   0.99218151
   1.02314881   1.02408495   1.07232204   1.11331264   1.12389264
   1.20074418   1.20388837   1.20927033   1.21589861   1.21821337
   1.28155629   1.28431109   1.29634025   1.3039692    1.30705783
   1.3655924    1.36853842   1.47276706   1.48233164   1.49172412
   1.49383617   1.49414377   1.49432095   1.50038996   1.50337975
   1.57812253   1.58079489   1.59213097   1.59283926   1.60506934
   1.60911014   1.61369292   1.71585158   1.72010582   1.73074726
   1.75568363   1.79775334   1.87811549   2.07906902   2.17357577
   2.17374625   2.20995222   2.27380961   2.27648449   2.30762827
   2.33702453   2.41887668   2.42430509   2.44282205   2.45348254
   2.45480741   2.51187199   2.51909487   2.58079059   2.64249889
   2.71793281   2.71937502   2.75440014   2.75808522   2.77550015
   2.82208305   2.88560413   2.88637491   2.91066504   2.92714818
   2.93061914   2.9688799    2.98478749   2.98756494   3.00754272
   3.01186934   3.04091227   3.04487554   3.06411798   3.09226564
   3.14353403   3.14395367   3.19507189   3.20902544   3.2147719
   3.2792302    3.28221147   3.29860931   3.29874076   3.31905162
   3.35699369   3.36086254   3.36321271   3.3657175    3.36889634
   3.38660247   3.38718474   3.41923367   3.42034205   3.42115037
   3.43845645   3.44042343   3.48599244   3.59617763   3.59682462
   3.60097827   3.63945859   3.65094318   3.65564341   3.67066573
   3.67390461   3.69520418   3.69718198   3.69760605   3.6993645
   3.75614085   3.89069729   3.89114663   3.90286375   3.90618057
   4.05039738   4.05361233   4.08405648   4.08609449   4.09334757
   4.09471358   4.10108149   4.10912285   4.11609622   4.11964038
   4.12289297   4.15776647   4.1581139    4.15923653   4.19917324
   4.20315753   4.31476519   4.31586745   4.36292683   4.40917591
   4.41456784   4.41775561   4.44580121   4.44877989   4.46375901
   4.49047207   4.50375795   4.52947344   4.5298805    4.55788775
   4.64306263   4.64625934   4.65038683   4.65368139   4.65941717
   4.66039936   4.67473441   4.67815136   4.87812404   4.88027859
   4.88198444   4.99145056   5.04117527   5.04679883   5.04841235
   5.09979667   5.1005856    5.11121521   5.11516043   5.1533945
   5.25637066   5.3164637    5.36165539   5.36709309   5.37173699
   5.37278047   5.4143579    5.4162083    5.52205375   5.52536738
   5.72607324   5.72637447   5.80857113   6.05986864   6.06065192
   6.08693816   6.25143508   6.2568818    6.3444583    6.50407174
   6.50492348   6.84370695   7.32139753   9.46868476  13.05547126
  13.06162802  13.571933    13.58011359  16.18396772]
  beta  mo_energy =
[-11.29590309 -11.29436945 -11.26184181 -11.24914612 -11.24618029
 -11.2446233   -1.17434808  -1.03797499  -1.03451477  -0.84300544
  -0.84263237  -0.72568146  -0.65770071  -0.63760373  -0.60500307
  -0.59985935  -0.51941496  -0.50848726  -0.50708108  -0.35342776
  -0.34679167   0.10952555   0.11355164   0.13983641   0.16586723
   0.16747877   0.19753836   0.19864225   0.21978471   0.31545898
   0.34947932   0.35162432   0.38674721   0.40183875   0.4088433
   0.4103487    0.41869097   0.46133436   0.46438941   0.49222885
   0.50824842   0.50864403   0.54183045   0.56020954   0.56215958
   0.57430736   0.57487951   0.58430445   0.58801702   0.60805288
   0.63257345   0.6327149    0.63688805   0.63825433   0.65457153
   0.69338583   0.71040012   0.7110131    0.73707697   0.73824173
   0.82696212   0.8463132    0.85002546   0.89487286   0.89586552
   0.93401617   0.94640709   0.94775601   0.97666206   0.99218706
   1.02287781   1.02374325   1.07225057   1.11305496   1.12343118
   1.20222207   1.20461657   1.2080965    1.21570964   1.21813885
   1.28143449   1.28406152   1.29727088   1.3037753    1.30654338
   1.3657515    1.36839107   1.47265718   1.48243016   1.49195682
   1.49419308   1.49445408   1.49473474   1.50063289   1.50318234
   1.57830119   1.58072348   1.59259639   1.59325773   1.60496647
   1.60926227   1.61353368   1.71632229   1.72015692   1.73095648
   1.75588555   1.79807265   1.87814122   2.07914938   2.17374054
   2.17394052   2.20995893   2.27390416   2.27651202   2.30966727
   2.33702614   2.41943435   2.42488804   2.44326639   2.45361461
   2.45466618   2.51263589   2.51881482   2.58107376   2.6429076
   2.71863256   2.71954395   2.75396352   2.75802661   2.77647947
   2.82245314   2.88560579   2.88634416   2.91051209   2.92820807
   2.93052648   2.96939864   2.98497148   2.98780421   3.00821022
   3.0119628    3.04056826   3.04467964   3.06411503   3.09272358
   3.14361591   3.14417034   3.19796277   3.20927552   3.21319365
   3.27983059   3.28225489   3.29907006   3.29977443   3.3187488
   3.35747939   3.3612256    3.36373252   3.36583082   3.36896203
   3.38669493   3.38720287   3.41920213   3.42088349   3.42186479
   3.43872554   3.44019225   3.4862819    3.59630446   3.59772039
   3.60063994   3.64048886   3.6512994    3.65570498   3.67066617
   3.67391093   3.69508975   3.69709784   3.69776018   3.69943532
   3.75637326   3.89076358   3.89126045   3.9029116    3.90626669
   4.05038383   4.05366354   4.08438517   4.0862771    4.09356499
   4.0947121    4.10122337   4.10894249   4.11612198   4.11984223
   4.1227989    4.15776779   4.15814709   4.15925874   4.19904966
   4.20303003   4.31476675   4.31583494   4.36335096   4.40903991
   4.41460422   4.41772021   4.44584642   4.44885089   4.46389701
   4.49031615   4.50361813   4.52950536   4.52995183   4.55778016
   4.64401838   4.64677955   4.65031424   4.653308     4.65951427
   4.66041068   4.67462507   4.67805016   4.87818046   4.88034035
   4.88205515   4.99172699   5.04142467   5.04700381   5.04857084
   5.09982136   5.10062043   5.11133929   5.1154056    5.15339319
   5.25639632   5.31661122   5.3616926    5.36733665   5.37180269
   5.37279785   5.41443572   5.41629216   5.52213544   5.52545495
   5.72611969   5.72640667   5.80868659   6.05994561   6.06068219
   6.08688885   6.25160838   6.25696272   6.34453037   6.5041766
   6.50504747   6.84378189   7.32151781   9.46881003  13.05577216
  13.06166805  13.57225367  13.58007949  16.18414695]
multiplicity <S^2> = 0.032184315  2S+1 = 1.0624205
E1 = -712.7440114301728  Ecoul = 278.4109719741958
macro= 4  E= -230.692973479142  delta_E= -0.435656  |g|= 0.345729  3 KF 17 JK
    CPU time for cycle= 5    411.43 sec, wall time    411.63 sec
    |g|= 0.319 (keyframe), |g-correction|= 0.0622
    CPU time for vj and vk     23.98 sec, wall time     23.98 sec
    imic 1(1)  |g|= 0.307  |dxi|= 0.0556  max(|x|)= 0.221  |dr|= 0.0556  eig= -0.0204  seig= 0.00309
    CPU time for vj and vk     24.73 sec, wall time     24.73 sec
    imic 2(2)  |g|= 0.212  |dxi|= 0.0813  max(|x|)= 0.148  |dr|= 0.124  eig= -0.0604  seig= 0.00308
    CPU time for vj and vk     24.38 sec, wall time     24.38 sec
    imic 3(3)  |g|= 0.14  |dxi|= 0.0814  max(|x|)= 0.138  |dr|= 0.195  eig= -0.0402  seig= 0.00308
    CPU time for vj and vk     24.33 sec, wall time     24.33 sec
    imic 4(4)  |g|= 0.0783  |dxi|= 0.0777  max(|x|)= 0.109  |dr|= 0.265  eig= -0.0196  seig= 0.00142
    CPU time for vj and vk     24.14 sec, wall time     24.14 sec
    imic 5(5)  |g|= 0.0253  |dxi|= 0.08  max(|x|)= 0.0708  |dr|= 0.336  eig= -0.00686  seig= 0.000419
    CPU time for vj and vk     24.53 sec, wall time     24.53 sec
E1 = -713.5888500920403  Ecoul = 279.17015359857726
Adjust keyframe g_orb to |g|= 0.0284  |g-correction|=0.0176  E=-230.778630517 dE=-0.085657
    CPU time for vj and vk     23.95 sec, wall time     23.95 sec
    imic 6(6)  |g|= 0.018  |dxi|= 0.0303  max(|x|)= 0.0183  |dr|= 0.0303  eig= -0.000466  seig= 9.19e-05
    CPU time for vj and vk     24.03 sec, wall time     24.03 sec
    imic 7(7)  |g|= 0.00952  |dxi|= 0.0164  max(|x|)= 0.00566  |dr|= 0.0363  eig= -0.000245  seig= 9.15e-05
    CPU time for vj and vk     23.85 sec, wall time     23.85 sec
    imic 8(8)  |g|= 0.00667  |dxi|= 0.0169  max(|x|)= 0.00693  |dr|= 0.0452  eig= -0.00011  seig= 6.72e-05
    CPU time for vj and vk     23.77 sec, wall time     23.77 sec
    imic 9(9)  |g|= 0.00384  |dxi|= 0.0072  max(|x|)= 0.00317  |dr|= 0.0492  eig= -2.53e-05  seig= 2.14e-05
    CPU time for vj and vk     23.78 sec, wall time     23.78 sec
E1 = -713.7794828966428  Ecoul = 279.35995179015185
Adjust keyframe g_orb to |g|= 0.00521  |g-correction|=0.00355  E=-230.77946513 dE=-0.00083461
    CPU time for vj and vk     23.65 sec, wall time     23.65 sec
    imic 10(10)  |g|= 0.00373  |dxi|= 0.00608  max(|x|)= 0.00411  |dr|= 0.00608  eig= -1.78e-05  seig= 9.63e-06
    CPU time for vj and vk     23.51 sec, wall time     23.51 sec
    imic 11(11)  |g|= 0.00192  |dxi|= 0.00447  max(|x|)= 0.00179  |dr|= 0.00926  eig= -1.21e-05  seig= 9.57e-06
    CPU time for vj and vk     23.27 sec, wall time     23.27 sec
    imic 12(12)  |g|= 0.00108  |dxi|= 0.00247  max(|x|)= 0.000971  |dr|= 0.0105  eig= -3.14e-06  seig= 2.1e-06
    CPU time for vj and vk     23.15 sec, wall time     23.15 sec
    imic 13(13)  |g|= 0.000799  |dxi|= 0.00146  max(|x|)= 0.000525  |dr|= 0.011  eig= -9.27e-07  seig= 6.38e-07
    CPU time for vj and vk     23.28 sec, wall time     23.28 sec
E1 = -713.8082778485582  Ecoul = 279.38871613651054
Adjust keyframe g_orb to |g|= 0.00112  |g-correction|=0.000735  E=-230.779495735 dE=-3.0606e-05
    CPU time for vj and vk     23.11 sec, wall time     23.11 sec
    imic 14(14)  |g|= 0.00146  |dxi|= 0.00407  max(|x|)= 0.00206  |dr|= 0.00407  eig= -2.55e-06  seig= 3.9e-07
    CPU time for vj and vk     23.19 sec, wall time     23.19 sec
    imic 15(15)  |g|= 0.00371  |dxi|= 0.0125  max(|x|)= 0.0054  |dr|= 0.0157  eig= -5.77e-06  seig= 3.79e-07
|g| >> keyframe, Restore previouse step
    tot inner=15  19 JK  |g|= 0.00146  |u-1|= 0.00407
    CPU time for aug_hess in 15 inner iters    453.06 sec, wall time    453.22 sec
    CPU time for vj and vk     23.07 sec, wall time     23.07 sec
  alpha nocc = 21  HOMO = -0.334914715323301  LUMO = 0.128366571901013
  beta  nocc = 21  HOMO = -0.334893346867901  LUMO = 0.128369084413352
  alpha mo_energy =
[-11.23389116 -11.23334428 -11.23332544 -11.23205128 -11.23199081
 -11.2314285   -1.14749035  -1.01267557  -1.01265034  -0.82270421
  -0.82268689  -0.70841461  -0.64422769  -0.61651423  -0.58680459
  -0.5867785   -0.50017544  -0.49360131  -0.49359378  -0.33495319
  -0.33491472   0.12836657   0.12842206   0.14642501   0.17003227
   0.17004466   0.20152892   0.20153502   0.22213233   0.33028815
   0.36000278   0.36001331   0.3945062    0.41830637   0.41957039
   0.41957845   0.43187439   0.47484371   0.47486404   0.50939412
   0.52126052   0.52127567   0.55458333   0.57369436   0.57371917
   0.58941765   0.58943233   0.59641648   0.59643351   0.62482392
   0.64217006   0.64218619   0.64259588   0.6428795    0.66800029
   0.70201449   0.72672718   0.72673245   0.74893742   0.74893975
   0.84364219   0.86045865   0.86048266   0.90664486   0.9066536
   0.95116117   0.95853806   0.95854553   0.99840688   1.00914019
   1.03237234   1.03237824   1.08421593   1.12367682   1.13300892
   1.21397695   1.21887085   1.21887242   1.22880061   1.22881327
   1.29537976   1.29539512   1.31282519   1.31370127   1.31371262
   1.38039021   1.3804063    1.48353271   1.49382657   1.50872532
   1.50873461   1.50998623   1.50998832   1.51383908   1.51385168
   1.59345345   1.59346805   1.60539807   1.6054019    1.61948538
   1.61950243   1.62432682   1.73311315   1.7331317    1.74448548
   1.76951903   1.81033111   1.89135737   2.09029824   2.18793931
   2.18794147   2.2215528    2.29427304   2.29428213   2.33400049
   2.35530858   2.44456801   2.44459668   2.46536818   2.47439341
   2.47439676   2.53822092   2.53824831   2.60497968   2.66388211
   2.74099899   2.74100767   2.77543681   2.77545844   2.79767484
   2.84416718   2.907672     2.90767784   2.93397596   2.9518175
   2.951831     2.99287496   3.0058626    3.00587767   3.03111722
   3.03113575   3.06460254   3.0646252    3.08586632   3.10874449
   3.16329005   3.16329765   3.22695986   3.22903718   3.22905367
   3.30140735   3.30141797   3.32110856   3.32111105   3.34172987
   3.37826636   3.378284     3.38502218   3.38672649   3.38674434
   3.40767212   3.40767469   3.43368567   3.44345641   3.44346328
   3.45636511   3.45751176   3.50461057   3.61297136   3.61298771
   3.61821525   3.66205377   3.67023187   3.67025513   3.69028816
   3.69030284   3.71307263   3.71308686   3.71402674   3.71403974
   3.77537223   3.90795      3.90795235   3.920976     3.92298965
   4.06267762   4.06536673   4.1026612    4.10267387   4.10980342
   4.10980739   4.11901375   4.12455206   4.1366685    4.13916143
   4.13917339   4.17339787   4.17340132   4.17903394   4.21074591
   4.21077186   4.33018348   4.33018811   4.38401164   4.41944504
   4.43105666   4.43107164   4.47003832   4.47005337   4.48993043
   4.50152753   4.51515754   4.54443194   4.54443318   4.57561369
   4.66772877   4.66773911   4.67164526   4.67165829   4.67925033
   4.67925467   4.68816233   4.68817926   4.89417021   4.90012847
   4.90013727   5.0075555    5.06144566   5.0718183    5.07182394
   5.11499213   5.11499734   5.13031056   5.13033272   5.17547205
   5.27514637   5.33354931   5.37876514   5.38681216   5.38683651
   5.38718596   5.43139594   5.43140531   5.54186725   5.54188253
   5.74582626   5.74582825   5.82700922   6.08179964   6.081803
   6.10512045   6.27564816   6.27566963   6.36954015   6.52674236
   6.52674784   6.86555009   7.34393045   9.48970845  13.08379571
  13.08381321  13.60253656  13.60256354  16.21162141]
  beta  mo_energy =
[-11.23387686 -11.23333376 -11.23326763 -11.23206957 -11.23203354
 -11.23144394  -1.14748627  -1.01267782  -1.01264131  -0.82270059
  -0.82269024  -0.70841302  -0.6442267   -0.61651864  -0.58680133
  -0.58677504  -0.50016575  -0.49360302  -0.49359306  -0.33495697
  -0.33489335   0.12836908   0.12842727   0.14642362   0.17003215
   0.17004466   0.20152884   0.20153447   0.22213191   0.33028898
   0.36000346   0.36001249   0.39450442   0.41830274   0.41957071
   0.41957546   0.43187764   0.47484917   0.47486507   0.50939045
   0.52126419   0.52126614   0.55458386   0.57370062   0.57371855
   0.58942202   0.58942742   0.59641594   0.59643348   0.62482065
   0.64216981   0.64218593   0.642595     0.64287866   0.66800339
   0.70201386   0.72672812   0.72673442   0.74893369   0.74894292
   0.84364227   0.86046495   0.86047704   0.90664537   0.90665103
   0.95115987   0.9585368    0.95854576   0.99841251   1.00913891
   1.03237139   1.0323773    1.08421593   1.12367574   1.13300878
   1.21397638   1.21886852   1.21887511   1.22880053   1.22881329
   1.29538136   1.29539436   1.31282464   1.31370059   1.31371197
   1.38039123   1.38040594   1.4835318    1.4938256    1.50872553
   1.50873368   1.50998647   1.50998943   1.51384086   1.51385003
   1.59345822   1.59346639   1.60539841   1.60540176   1.61948452
   1.61950391   1.62432718   1.73311357   1.73313073   1.74448584
   1.76952044   1.81033051   1.89135754   2.09029757   2.18793939
   2.18794209   2.22155244   2.29427237   2.29428342   2.33400378
   2.35530883   2.44457097   2.44460097   2.46536924   2.47439219
   2.47439951   2.53822247   2.53824977   2.60498267   2.66388412
   2.74100086   2.74100819   2.77544047   2.7754576    2.79767668
   2.84416905   2.90767217   2.90767788   2.93397642   2.95181699
   2.95183504   2.99287699   3.00586135   3.00588025   3.03111729
   3.03113603   3.0646054    3.06462696   3.08586612   3.10874472
   3.16329272   3.16329624   3.22696047   3.22903749   3.22905674
   3.30140953   3.30141789   3.32110745   3.32111358   3.34173207
   3.37826865   3.37828293   3.385022     3.3867251    3.38674547
   3.40767025   3.407677     3.43368548   3.44345843   3.4434648
   3.45636571   3.45751207   3.50461088   3.61297249   3.61298711
   3.61821665   3.6620542    3.67023393   3.67025395   3.69028988
   3.69030157   3.71307269   3.71308711   3.71402729   3.71403914
   3.77537251   3.90794878   3.90795386   3.92097596   3.92299111
   4.06267731   4.06536638   4.1026621    4.10267325   4.10980292
   4.10980811   4.11901293   4.12455144   4.13666885   4.13916207
   4.13917212   4.17339807   4.17340195   4.17903444   4.21074673
   4.21076959   4.33018331   4.33018798   4.38401233   4.41944446
   4.43105855   4.43107036   4.47003873   4.47005416   4.48993095
   4.50152708   4.51515752   4.5444313    4.54443339   4.57561381
   4.66772941   4.6677404    4.67164525   4.67165944   4.67924827
   4.67925676   4.68816263   4.68817873   4.89417023   4.9001285
   4.9001365    5.00755589   5.06144586   5.07181721   5.0718261
   5.11499253   5.1149966    5.13031318   5.13033159   5.17547335
   5.27514633   5.33354949   5.37876521   5.38681451   5.38683503
   5.38718596   5.43139621   5.43140491   5.54186758   5.54188219
   5.74582629   5.74582811   5.82700983   6.08179947   6.08180341
   6.10512048   6.2756479    6.27567029   6.36954032   6.52674274
   6.52674755   6.86555038   7.34393032   9.48970883  13.08379365
  13.08381659  13.6025347   13.60256694  16.21162216]
multiplicity <S^2> = 0.00050360262  2S+1 = 1.0010067
E1 = -713.8107432382546  Ecoul = 279.3911795831589
macro= 5  E= -230.779497678261  delta_E= -0.0865242  |g|= 0.00111929  4 KF 19 JK
    CPU time for cycle= 6    451.89 sec, wall time    452.06 sec
    |g|= 0.00146 (keyframe), |g-correction|= 0.000252
[...]
spin_pop of  6 C 4dxz     -0.00000
spin_pop of  6 C 4dx2-y2   -0.00000
spin_pop of  6 C 4fy^3     0.00000
spin_pop of  6 C 4fxyz     0.00000
spin_pop of  6 C 4fyz^2    0.00000
spin_pop of  6 C 4fz^3     0.00000
spin_pop of  6 C 4fxz^2   -0.00000
spin_pop of  6 C 4fzx^2   -0.00000
spin_pop of  6 C 4fx^3    -0.00000
spin_pop of  7 H 1s        0.00000
spin_pop of  7 H 2s       -0.00000
spin_pop of  7 H 3s       -0.00000
spin_pop of  7 H 2px      -0.00000
spin_pop of  7 H 2py       0.00000
spin_pop of  7 H 2pz      -0.00000
spin_pop of  7 H 3px       0.00000
spin_pop of  7 H 3py       0.00000
spin_pop of  7 H 3pz      -0.00000
spin_pop of  7 H 3dxy      0.00000
spin_pop of  7 H 3dyz     -0.00000
spin_pop of  7 H 3dz^2     0.00000
spin_pop of  7 H 3dxz     -0.00000
spin_pop of  7 H 3dx2-y2    0.00000
spin_pop of  8 C 1s       -0.00000
spin_pop of  8 C 2s        0.00000
spin_pop of  8 C 3s       -0.00000
spin_pop of  8 C 4s        0.00000
spin_pop of  8 C 2px       0.00000
spin_pop of  8 C 2py       0.00000
spin_pop of  8 C 2pz       0.00001
spin_pop of  8 C 3px      -0.00000
spin_pop of  8 C 3py      -0.00000
spin_pop of  8 C 3pz       0.00000
spin_pop of  8 C 4px       0.00000
spin_pop of  8 C 4py       0.00000
spin_pop of  8 C 4pz       0.00000
spin_pop of  8 C 3dxy     -0.00000
spin_pop of  8 C 3dyz     -0.00000
spin_pop of  8 C 3dz^2    -0.00000
spin_pop of  8 C 3dxz      0.00000
spin_pop of  8 C 3dx2-y2    0.00000
spin_pop of  8 C 4dxy      0.00000
spin_pop of  8 C 4dyz      0.00000
spin_pop of  8 C 4dz^2    -0.00000
spin_pop of  8 C 4dxz     -0.00000
spin_pop of  8 C 4dx2-y2   -0.00000
spin_pop of  8 C 4fy^3     0.00000
spin_pop of  8 C 4fxyz     0.00000
spin_pop of  8 C 4fyz^2    0.00000
spin_pop of  8 C 4fz^3     0.00000
spin_pop of  8 C 4fxz^2   -0.00000
spin_pop of  8 C 4fzx^2   -0.00000
spin_pop of  8 C 4fx^3     0.00000
spin_pop of  9 H 1s       -0.00000
spin_pop of  9 H 2s        0.00000
spin_pop of  9 H 3s        0.00000
spin_pop of  9 H 2px       0.00000
spin_pop of  9 H 2py      -0.00000
spin_pop of  9 H 2pz       0.00000
spin_pop of  9 H 3px      -0.00000
spin_pop of  9 H 3py       0.00000
spin_pop of  9 H 3pz       0.00000
spin_pop of  9 H 3dxy      0.00000
spin_pop of  9 H 3dyz      0.00000
spin_pop of  9 H 3dz^2    -0.00000
spin_pop of  9 H 3dxz     -0.00000
spin_pop of  9 H 3dx2-y2   -0.00000
spin_pop of  10 C 1s        0.00000
spin_pop of  10 C 2s       -0.00000
spin_pop of  10 C 3s       -0.00000
spin_pop of  10 C 4s       -0.00000
spin_pop of  10 C 2px      -0.00000
spin_pop of  10 C 2py      -0.00000
spin_pop of  10 C 2pz      -0.00000
spin_pop of  10 C 3px      -0.00000
spin_pop of  10 C 3py       0.00000
spin_pop of  10 C 3pz       0.00000
spin_pop of  10 C 4px      -0.00000
spin_pop of  10 C 4py       0.00000
spin_pop of  10 C 4pz       0.00000
spin_pop of  10 C 3dxy      0.00000
spin_pop of  10 C 3dyz     -0.00000
spin_pop of  10 C 3dz^2    -0.00000
spin_pop of  10 C 3dxz      0.00000
spin_pop of  10 C 3dx2-y2    0.00000
spin_pop of  10 C 4dxy      0.00000
spin_pop of  10 C 4dyz      0.00000
spin_pop of  10 C 4dz^2    -0.00000
spin_pop of  10 C 4dxz     -0.00000
spin_pop of  10 C 4dx2-y2   -0.00000
spin_pop of  10 C 4fy^3     0.00000
spin_pop of  10 C 4fxyz     0.00000
spin_pop of  10 C 4fyz^2    0.00000
spin_pop of  10 C 4fz^3    -0.00000
spin_pop of  10 C 4fxz^2   -0.00000
spin_pop of  10 C 4fzx^2   -0.00000
spin_pop of  10 C 4fx^3     0.00000
spin_pop of  11 H 1s        0.00000
spin_pop of  11 H 2s        0.00000
spin_pop of  11 H 3s        0.00000
spin_pop of  11 H 2px       0.00000
spin_pop of  11 H 2py       0.00000
spin_pop of  11 H 2pz      -0.00000
spin_pop of  11 H 3px       0.00000
spin_pop of  11 H 3py       0.00000
spin_pop of  11 H 3pz      -0.00000
spin_pop of  11 H 3dxy      0.00000
spin_pop of  11 H 3dyz      0.00000
spin_pop of  11 H 3dz^2    -0.00000
spin_pop of  11 H 3dxz     -0.00000
spin_pop of  11 H 3dx2-y2   -0.00000
 ** Mulliken Spin Density (per atom)  **
spin density of  0 C =     -0.00000
spin density of  1 H =      0.00000
spin density of  2 C =      0.00000
spin density of  3 H =     -0.00000
spin density of  4 C =      0.00001
spin density of  5 H =     -0.00000
spin density of  6 C =     -0.00001
spin density of  7 H =      0.00000
spin density of  8 C =      0.00001
spin density of  9 H =     -0.00000
spin density of  10 C =     -0.00000
spin density of  11 H =      0.00000
 ** Mulliken pop alpha/beta on meta-lowdin orthogonal AOs **
 ** Mulliken pop       alpha | beta **
pop of  0 C 1s        0.99999 | 0.99999   
pop of  0 C 2s        0.48623 | 0.48623   
pop of  0 C 3s        0.00201 | 0.00201   
pop of  0 C 4s        0.00016 | 0.00016   
pop of  0 C 2px       0.54330 | 0.54330   
pop of  0 C 2py       0.51185 | 0.51185   
pop of  0 C 2pz       0.49620 | 0.49620   
pop of  0 C 3px       0.00195 | 0.00195   
pop of  0 C 3py       0.00268 | 0.00268   
pop of  0 C 3pz       0.00256 | 0.00256   
pop of  0 C 4px       0.00026 | 0.00026   
pop of  0 C 4py       0.00005 | 0.00005   
pop of  0 C 4pz       0.00001 | 0.00001   
pop of  0 C 3dxy      0.00125 | 0.00125   
pop of  0 C 3dyz      0.00049 | 0.00049   
pop of  0 C 3dz^2     0.00144 | 0.00144   
pop of  0 C 3dxz      0.00032 | 0.00032   
pop of  0 C 3dx2-y2    0.00073 | 0.00073   
pop of  0 C 4dxy      0.00016 | 0.00016   
pop of  0 C 4dyz      0.00001 | 0.00001   
pop of  0 C 4dz^2     0.00003 | 0.00003   
pop of  0 C 4dxz      0.00003 | 0.00003   
pop of  0 C 4dx2-y2    0.00050 | 0.00050   
pop of  0 C 4fy^3     0.00006 | 0.00006   
pop of  0 C 4fxyz     0.00001 | 0.00001   
pop of  0 C 4fyz^2    0.00021 | 0.00021   
pop of  0 C 4fz^3     0.00014 | 0.00014   
pop of  0 C 4fxz^2    0.00023 | 0.00023   
pop of  0 C 4fzx^2    0.00001 | 0.00001   
pop of  0 C 4fx^3     0.00065 | 0.00065   
pop of  1 H 1s        0.44064 | 0.44064   
pop of  1 H 2s        0.00333 | 0.00333   
pop of  1 H 3s        0.00118 | 0.00118   
pop of  1 H 2px       0.00045 | 0.00045   
pop of  1 H 2py       0.00029 | 0.00029   
pop of  1 H 2pz       0.00015 | 0.00015   
pop of  1 H 3px       0.00015 | 0.00015   
pop of  1 H 3py       0.00012 | 0.00012   
pop of  1 H 3pz       0.00000 | 0.00000   
pop of  1 H 3dxy      0.00003 | 0.00003   
pop of  1 H 3dyz      0.00001 | 0.00001   
pop of  1 H 3dz^2     0.00002 | 0.00002   
pop of  1 H 3dxz      0.00005 | 0.00005   
pop of  1 H 3dx2-y2    0.00004 | 0.00004   
pop of  2 C 1s        0.99999 | 0.99999   
pop of  2 C 2s        0.48623 | 0.48623   
pop of  2 C 3s        0.00201 | 0.00201   
pop of  2 C 4s        0.00016 | 0.00016   
pop of  2 C 2px       0.51972 | 0.51972   
pop of  2 C 2py       0.53544 | 0.53544   
pop of  2 C 2pz       0.49620 | 0.49620   
pop of  2 C 3px       0.00250 | 0.00250   
pop of  2 C 3py       0.00213 | 0.00213   
pop of  2 C 3pz       0.00256 | 0.00256   
pop of  2 C 4px       0.00010 | 0.00010   
pop of  2 C 4py       0.00021 | 0.00021   
pop of  2 C 4pz       0.00001 | 0.00001   
pop of  2 C 3dxy      0.00086 | 0.00086   
pop of  2 C 3dyz      0.00037 | 0.00037   
pop of  2 C 3dz^2     0.00144 | 0.00144   
pop of  2 C 3dxz      0.00045 | 0.00045   
pop of  2 C 3dx2-y2    0.00112 | 0.00112   
pop of  2 C 4dxy      0.00041 | 0.00041   
pop of  2 C 4dyz      0.00003 | 0.00003   
pop of  2 C 4dz^2     0.00003 | 0.00003   
pop of  2 C 4dxz      0.00001 | 0.00001   
pop of  2 C 4dx2-y2    0.00025 | 0.00025   
pop of  2 C 4fy^3     0.00006 | 0.00006   
pop of  2 C 4fxyz     0.00001 | 0.00001   
pop of  2 C 4fyz^2    0.00023 | 0.00023   
pop of  2 C 4fz^3     0.00014 | 0.00014   
pop of  2 C 4fxz^2    0.00021 | 0.00021   
pop of  2 C 4fzx^2    0.00001 | 0.00001   
pop of  2 C 4fx^3     0.00065 | 0.00065   
pop of  3 H 1s        0.44064 | 0.44064   
pop of  3 H 2s        0.00333 | 0.00333   
pop of  3 H 3s        0.00118 | 0.00118   
pop of  3 H 2px       0.00033 | 0.00033   
pop of  3 H 2py       0.00041 | 0.00041   
pop of  3 H 2pz       0.00015 | 0.00015   
pop of  3 H 3px       0.00013 | 0.00013   
pop of  3 H 3py       0.00015 | 0.00015   
pop of  3 H 3pz       0.00000 | 0.00000   
pop of  3 H 3dxy      0.00003 | 0.00003   
pop of  3 H 3dyz      0.00004 | 0.00004   
pop of  3 H 3dz^2     0.00002 | 0.00002   
pop of  3 H 3dxz      0.00002 | 0.00002   
pop of  3 H 3dx2-y2    0.00003 | 0.00003   
pop of  4 C 1s        0.99999 | 0.99999   
pop of  4 C 2s        0.48623 | 0.48623   
pop of  4 C 3s        0.00201 | 0.00201   
pop of  4 C 4s        0.00016 | 0.00016   
pop of  4 C 2px       0.51972 | 0.51972   
pop of  4 C 2py       0.53544 | 0.53544   
pop of  4 C 2pz       0.49620 | 0.49620   
pop of  4 C 3px       0.00250 | 0.00250   
pop of  4 C 3py       0.00213 | 0.00213   
pop of  4 C 3pz       0.00256 | 0.00256   
pop of  4 C 4px       0.00010 | 0.00010   
pop of  4 C 4py       0.00021 | 0.00021   
pop of  4 C 4pz       0.00001 | 0.00001   
pop of  4 C 3dxy      0.00086 | 0.00086   
pop of  4 C 3dyz      0.00037 | 0.00037   
pop of  4 C 3dz^2     0.00144 | 0.00144   
pop of  4 C 3dxz      0.00045 | 0.00045   
pop of  4 C 3dx2-y2    0.00112 | 0.00112   
pop of  4 C 4dxy      0.00041 | 0.00041   
pop of  4 C 4dyz      0.00003 | 0.00003   
pop of  4 C 4dz^2     0.00003 | 0.00003   
pop of  4 C 4dxz      0.00001 | 0.00001   
pop of  4 C 4dx2-y2    0.00025 | 0.00025   
pop of  4 C 4fy^3     0.00006 | 0.00006   
pop of  4 C 4fxyz     0.00001 | 0.00001   
pop of  4 C 4fyz^2    0.00023 | 0.00023   
pop of  4 C 4fz^3     0.00014 | 0.00014   
pop of  4 C 4fxz^2    0.00021 | 0.00021   
pop of  4 C 4fzx^2    0.00001 | 0.00001   
pop of  4 C 4fx^3     0.00065 | 0.00065   
pop of  5 H 1s        0.44064 | 0.44064   
pop of  5 H 2s        0.00333 | 0.00333   
pop of  5 H 3s        0.00118 | 0.00118   
pop of  5 H 2px       0.00033 | 0.00033   
pop of  5 H 2py       0.00041 | 0.00041   
pop of  5 H 2pz       0.00015 | 0.00015   
pop of  5 H 3px       0.00013 | 0.00013   
pop of  5 H 3py       0.00015 | 0.00015   
pop of  5 H 3pz       0.00000 | 0.00000   
pop of  5 H 3dxy      0.00003 | 0.00003   
pop of  5 H 3dyz      0.00004 | 0.00004   
pop of  5 H 3dz^2     0.00002 | 0.00002   
pop of  5 H 3dxz      0.00002 | 0.00002   
pop of  5 H 3dx2-y2    0.00003 | 0.00003   
pop of  6 C 1s        0.99999 | 0.99999   
pop of  6 C 2s        0.48623 | 0.48623   
pop of  6 C 3s        0.00201 | 0.00201   
pop of  6 C 4s        0.00016 | 0.00016   
pop of  6 C 2px       0.54330 | 0.54330   
pop of  6 C 2py       0.51185 | 0.51185   
pop of  6 C 2pz       0.49620 | 0.49621   
pop of  6 C 3px       0.00195 | 0.00195   
pop of  6 C 3py       0.00268 | 0.00268   
pop of  6 C 3pz       0.00256 | 0.00256   
pop of  6 C 4px       0.00026 | 0.00026   
pop of  6 C 4py       0.00005 | 0.00005   
pop of  6 C 4pz       0.00001 | 0.00001   
pop of  6 C 3dxy      0.00125 | 0.00125   
pop of  6 C 3dyz      0.00049 | 0.00049   
pop of  6 C 3dz^2     0.00144 | 0.00144   
pop of  6 C 3dxz      0.00032 | 0.00032   
pop of  6 C 3dx2-y2    0.00073 | 0.00073   
pop of  6 C 4dxy      0.00016 | 0.00016   
pop of  6 C 4dyz      0.00001 | 0.00001   
pop of  6 C 4dz^2     0.00003 | 0.00003   
pop of  6 C 4dxz      0.00003 | 0.00003   
pop of  6 C 4dx2-y2    0.00050 | 0.00050   
pop of  6 C 4fy^3     0.00006 | 0.00006   
pop of  6 C 4fxyz     0.00001 | 0.00001   
pop of  6 C 4fyz^2    0.00021 | 0.00021   
pop of  6 C 4fz^3     0.00014 | 0.00014   
pop of  6 C 4fxz^2    0.00023 | 0.00023   
pop of  6 C 4fzx^2    0.00001 | 0.00001   
pop of  6 C 4fx^3     0.00065 | 0.00065   
pop of  7 H 1s        0.44064 | 0.44064   
pop of  7 H 2s        0.00333 | 0.00333   
pop of  7 H 3s        0.00118 | 0.00118   
pop of  7 H 2px       0.00045 | 0.00045   
pop of  7 H 2py       0.00029 | 0.00029   
pop of  7 H 2pz       0.00015 | 0.00015   
pop of  7 H 3px       0.00015 | 0.00015   
pop of  7 H 3py       0.00012 | 0.00012   
pop of  7 H 3pz       0.00000 | 0.00000   
pop of  7 H 3dxy      0.00003 | 0.00003   
pop of  7 H 3dyz      0.00001 | 0.00001   
pop of  7 H 3dz^2     0.00002 | 0.00002   
pop of  7 H 3dxz      0.00005 | 0.00005   
pop of  7 H 3dx2-y2    0.00004 | 0.00004   
pop of  8 C 1s        0.99999 | 0.99999   
pop of  8 C 2s        0.48623 | 0.48623   
pop of  8 C 3s        0.00201 | 0.00201   
pop of  8 C 4s        0.00016 | 0.00016   
pop of  8 C 2px       0.51972 | 0.51972   
pop of  8 C 2py       0.53544 | 0.53544   
pop of  8 C 2pz       0.49620 | 0.49620   
pop of  8 C 3px       0.00250 | 0.00250   
pop of  8 C 3py       0.00213 | 0.00213   
pop of  8 C 3pz       0.00256 | 0.00256   
pop of  8 C 4px       0.00010 | 0.00010   
pop of  8 C 4py       0.00021 | 0.00021   
pop of  8 C 4pz       0.00001 | 0.00001   
pop of  8 C 3dxy      0.00086 | 0.00086   
pop of  8 C 3dyz      0.00037 | 0.00037   
pop of  8 C 3dz^2     0.00144 | 0.00144   
pop of  8 C 3dxz      0.00045 | 0.00045   
pop of  8 C 3dx2-y2    0.00112 | 0.00112   
pop of  8 C 4dxy      0.00041 | 0.00041   
pop of  8 C 4dyz      0.00003 | 0.00003   
pop of  8 C 4dz^2     0.00003 | 0.00003   
pop of  8 C 4dxz      0.00001 | 0.00001   
pop of  8 C 4dx2-y2    0.00025 | 0.00025   
pop of  8 C 4fy^3     0.00006 | 0.00006   
pop of  8 C 4fxyz     0.00001 | 0.00001   
pop of  8 C 4fyz^2    0.00023 | 0.00023   
pop of  8 C 4fz^3     0.00014 | 0.00014   
pop of  8 C 4fxz^2    0.00021 | 0.00021   
pop of  8 C 4fzx^2    0.00001 | 0.00001   
pop of  8 C 4fx^3     0.00065 | 0.00065   
pop of  9 H 1s        0.44064 | 0.44064   
pop of  9 H 2s        0.00333 | 0.00333   
pop of  9 H 3s        0.00118 | 0.00118   
pop of  9 H 2px       0.00033 | 0.00033   
pop of  9 H 2py       0.00041 | 0.00041   
pop of  9 H 2pz       0.00015 | 0.00015   
pop of  9 H 3px       0.00013 | 0.00013   
pop of  9 H 3py       0.00015 | 0.00015   
pop of  9 H 3pz       0.00000 | 0.00000   
pop of  9 H 3dxy      0.00003 | 0.00003   
pop of  9 H 3dyz      0.00004 | 0.00004   
pop of  9 H 3dz^2     0.00002 | 0.00002   
pop of  9 H 3dxz      0.00002 | 0.00002   
pop of  9 H 3dx2-y2    0.00003 | 0.00003   
pop of  10 C 1s        0.99999 | 0.99999   
pop of  10 C 2s        0.48623 | 0.48623   
pop of  10 C 3s        0.00201 | 0.00201   
pop of  10 C 4s        0.00016 | 0.00016   
pop of  10 C 2px       0.51972 | 0.51972   
pop of  10 C 2py       0.53544 | 0.53544   
pop of  10 C 2pz       0.49620 | 0.49621   
pop of  10 C 3px       0.00250 | 0.00250   
pop of  10 C 3py       0.00213 | 0.00213   
pop of  10 C 3pz       0.00256 | 0.00256   
pop of  10 C 4px       0.00010 | 0.00010   
pop of  10 C 4py       0.00021 | 0.00021   
pop of  10 C 4pz       0.00001 | 0.00001   
pop of  10 C 3dxy      0.00086 | 0.00086   
pop of  10 C 3dyz      0.00037 | 0.00037   
pop of  10 C 3dz^2     0.00144 | 0.00144   
pop of  10 C 3dxz      0.00045 | 0.00045   
pop of  10 C 3dx2-y2    0.00112 | 0.00112   
pop of  10 C 4dxy      0.00041 | 0.00041   
pop of  10 C 4dyz      0.00003 | 0.00003   
pop of  10 C 4dz^2     0.00003 | 0.00003   
pop of  10 C 4dxz      0.00001 | 0.00001   
pop of  10 C 4dx2-y2    0.00025 | 0.00025   
pop of  10 C 4fy^3     0.00006 | 0.00006   
pop of  10 C 4fxyz     0.00001 | 0.00001   
pop of  10 C 4fyz^2    0.00023 | 0.00023   
pop of  10 C 4fz^3     0.00014 | 0.00014   
pop of  10 C 4fxz^2    0.00021 | 0.00021   
pop of  10 C 4fzx^2    0.00001 | 0.00001   
pop of  10 C 4fx^3     0.00065 | 0.00065   
pop of  11 H 1s        0.44064 | 0.44064   
pop of  11 H 2s        0.00333 | 0.00333   
pop of  11 H 3s        0.00118 | 0.00118   
pop of  11 H 2px       0.00033 | 0.00033   
pop of  11 H 2py       0.00041 | 0.00041   
pop of  11 H 2pz       0.00015 | 0.00015   
pop of  11 H 3px       0.00013 | 0.00013   
pop of  11 H 3py       0.00015 | 0.00015   
pop of  11 H 3pz       0.00000 | 0.00000   
pop of  11 H 3dxy      0.00003 | 0.00003   
pop of  11 H 3dyz      0.00004 | 0.00004   
pop of  11 H 3dz^2     0.00002 | 0.00002   
pop of  11 H 3dxz      0.00002 | 0.00002   
pop of  11 H 3dx2-y2    0.00003 | 0.00003   
In total            21.00000 | 21.00000  
 ** Mulliken atomic charges   ( Nelec_alpha | Nelec_beta ) **
charge of  0C =     -0.10707  (     3.05353      3.05353 )
charge of  1H =      0.10707  (     0.44646      0.44646 )
charge of  2C =     -0.10707  (     3.05354      3.05354 )
charge of  3H =      0.10707  (     0.44646      0.44646 )
charge of  4C =     -0.10707  (     3.05354      3.05353 )
charge of  5H =      0.10707  (     0.44646      0.44646 )
charge of  6C =     -0.10708  (     3.05353      3.05354 )
charge of  7H =      0.10707  (     0.44646      0.44646 )
charge of  8C =     -0.10707  (     3.05354      3.05353 )
charge of  9H =      0.10707  (     0.44646      0.44646 )
charge of  10C =     -0.10708  (     3.05354      3.05354 )
charge of  11H =      0.10707  (     0.44646      0.44646 )
Dipole moment(X, Y, Z, Debye):  0.00002,  0.00001, -0.00000
Converting <class 'pyscf.soscf.newton_ah.newton.<locals>.SecondOrderUHF'> to UHF

******** <class 'pyscf.cc.uccsd.UCCSD'> ********
CC2 = 0
CCSD nocc = (21, 21), nmo = (264, 264)
max_cycle = 50
direct = 0
conv_tol = 1e-07
conv_tol_normt = 1e-06
diis_space = 6
diis_start_cycle = 0
diis_start_energy_diff = 1e+09
max_memory 4000 MB (current use 123 MB)
    CPU time for vj and vk     24.39 sec, wall time     24.39 sec
E1 = -713.8101247464111  Ecoul = 279.39056539225373
Init t2, MP2 energy = -1.04286652573489
    CPU time for init mp2      1.74 sec, wall time      1.74 sec
Init E_corr(CCSD) = -1.04286652578857
cycle = 1  E_corr(CCSD) = -1.03835343072809  dE = 0.00451309506  norm(t1,t2) = 0.117524
    CPU time for CCSD iter    428.31 sec, wall time    428.40 sec
cycle = 2  E_corr(CCSD) = -1.06718891129816  dE = -0.0288354806  norm(t1,t2) = 0.0365972
    CPU time for CCSD iter    427.35 sec, wall time    427.36 sec
cycle = 3  E_corr(CCSD) = -1.06656248082131  dE = 0.000626430477  norm(t1,t2) = 0.0150534
    CPU time for CCSD iter    427.06 sec, wall time    427.07 sec
cycle = 4  E_corr(CCSD) = -1.0698926826174  dE = -0.0033302018  norm(t1,t2) = 0.00704051
    CPU time for CCSD iter    426.66 sec, wall time    426.67 sec
cycle = 5  E_corr(CCSD) = -1.06990583106361  dE = -1.31484462e-05  norm(t1,t2) = 0.00142747
    CPU time for CCSD iter    426.73 sec, wall time    426.74 sec
cycle = 6  E_corr(CCSD) = -1.06977034304273  dE = 0.000135488021  norm(t1,t2) = 0.000467444
    CPU time for CCSD iter    426.91 sec, wall time    426.92 sec
cycle = 7  E_corr(CCSD) = -1.06977991772319  dE = -9.57468046e-06  norm(t1,t2) = 9.63396e-05
    CPU time for CCSD iter    427.62 sec, wall time    427.63 sec
cycle = 8  E_corr(CCSD) = -1.06978535387696  dE = -5.43615377e-06  norm(t1,t2) = 2.71885e-05
    CPU time for CCSD iter    426.52 sec, wall time    426.53 sec
cycle = 9  E_corr(CCSD) = -1.06978531082479  dE = 4.30521694e-08  norm(t1,t2) = 9.64173e-06
    CPU time for CCSD iter    428.19 sec, wall time    428.21 sec
cycle = 10  E_corr(CCSD) = -1.06978523980796  dE = 7.10168284e-08  norm(t1,t2) = 2.16591e-06
    CPU time for CCSD iter    426.30 sec, wall time    426.32 sec
cycle = 11  E_corr(CCSD) = -1.06978519815485  dE = 4.16531103e-08  norm(t1,t2) = 5.79857e-07
    CPU time for CCSD iter    427.52 sec, wall time    427.53 sec
    CPU time for CCSD   4699.18 sec, wall time   4699.37 sec
UCCSD converged
E(UCCSD) = -231.8492785754775  E_corr = -1.06978519815485
    CPU time for vj and vk     24.36 sec, wall time     24.36 sec
E1 = -713.8101247464111  Ecoul = 279.39056539225373
max_memory 2596 MB (1403 MB in use)
max_memory 2596 MB (1403 MB in use)
    CPU time for UCCSD(T)  26597.32 sec, wall time  26589.30 sec
UCCSD(T) correction = -0.0530719500371966


CCSD correlation energy:  -1.0697851981548503
    CPU time for vj and vk     24.35 sec, wall time     24.35 sec
E1 = -713.8101247464111  Ecoul = 279.39056539225373
CCSD total energy:  -231.84927857547748


CCSD(T) correlation energy:  -1.1228571481920468
    CPU time for vj and vk     24.37 sec, wall time     24.37 sec
E1 = -713.8101247464111  Ecoul = 279.39056539225373
CCSD(T) total energy:  -231.9023505255147
