#INFO: **** input file is /projects/ilsa8974/experiments/VMCr/papers/jpghf_realspace/benzene/cc/ae/tz/C/C.py ****
import json
import numpy as np
from pyscf import lib, gto, scf, ao2mo, tools, fci, mcscf, cc
from pyscf.shciscf import shci, settings

atomstring = ""
atomstring += f"C 0 0 0;"

mol = gto.M(
atom = atomstring,
unit = "bohr",
cart = False,
spin = 2,
basis = "ccpvtz",
verbose = 5
)
mf = scf.UHF(mol).newton()
norbs = mol.nao

dm = mf.get_init_guess()

dm = dm + (2.0 * np.random.rand(norbs, norbs) - 1.0) / 1000
mf.max_cycle = 100
mf.kernel(dm0 = dm)
mf.analyze()

mycc = mf.CCSD()
mycc.run()
et = mycc.ccsd_t()
print("\n")
print('CCSD correlation energy: ', mycc.e_corr)
print('CCSD total energy: ', mf.energy_tot() + mycc.e_corr)
print("\n")
print('CCSD(T) correlation energy: ', mycc.e_corr + et)
print('CCSD(T) total energy: ', mf.energy_tot() + mycc.e_corr + et)
#INFO: ******************** input file end ********************


System: uname_result(system='Linux', node='bnode0303.rc.int.colorado.edu', release='3.10.0-693.37.4.el7.x86_64', version='#1 SMP Fri Aug 10 12:34:55 EDT 2018', machine='x86_64', processor='x86_64')  Threads 1
Python 3.7.3 (default, Mar 27 2019, 22:11:17) 
[GCC 7.3.0]
numpy 1.16.4  scipy 1.3.0
Date: Wed Jun  9 13:38:25 2021
PySCF version 1.7.5
PySCF path  /projects/ilsa8974/apps/pyscf/pyscf
GIT HEAD      ref: refs/heads/master
GIT master branch  7a57d2f37184ea4cd3b52a590c945197b084f66d

[CONFIG] conf_file None
[INPUT] verbose = 5
[INPUT] max_memory = 4000 
[INPUT] num. atoms = 1
[INPUT] num. electrons = 6
[INPUT] charge = 0
[INPUT] spin (= nelec alpha-beta = 2S) = 2
[INPUT] symmetry False subgroup None
[INPUT] Mole.unit = bohr
[INPUT]  1 C      0.000000000000   0.000000000000   0.000000000000 AA    0.000000000000   0.000000000000   0.000000000000 Bohr
[INPUT] ---------------- BASIS SET ---------------- 
[INPUT] l, kappa, [nprim/nctr], expnt,             c_1 c_2 ...
[INPUT] C
[INPUT] 0    0    [8    /2   ]  8236              0.000531 -0.000113
                                1235              0.004108 -0.000878
                                280.8             0.021087 -0.00454
                                79.27             0.081853 -0.018133
                                25.59             0.234817 -0.05576
                                8.997             0.434401 -0.126895
                                3.319             0.346129 -0.170352
                                0.3643            -0.008983 0.598684
[INPUT] 0    0    [1    /1   ]  0.9059               1
[INPUT] 0    0    [1    /1   ]  0.1285               1
[INPUT] 1    0    [3    /1   ]  18.71             0.014031
                                4.133             0.086866
                                1.2               0.290216
[INPUT] 1    0    [1    /1   ]  0.3827               1
[INPUT] 1    0    [1    /1   ]  0.1209               1
[INPUT] 2    0    [1    /1   ]  1.097                1
[INPUT] 2    0    [1    /1   ]  0.318                1
[INPUT] 3    0    [1    /1   ]  0.761                1

nuclear repulsion = 0
number of shells = 9
number of NR pGTOs = 42
number of NR cGTOs = 30
basis = ccpvtz
ecp = {}
CPU time:         0.35




******** <class 'pyscf.scf.uhf.UHF'> ********
method = UHF
initial guess = minao
damping factor = 0
level_shift factor = 0
DIIS = <class 'pyscf.scf.diis.CDIIS'>
diis_start_cycle = 1
diis_space = 8
SCF conv_tol = 1e-09
SCF conv_tol_grad = None
SCF max_cycles = 50
direct_scf = True
direct_scf_tol = 1e-13
chkfile to save SCF result = /rc_scratch/ilsa8974/tmpuvngosuo
max_memory 4000 MB (current use 64 MB)
number electrons alpha = 4  beta = 2
******** <class 'pyscf.scf.uhf.UHF'> Newton solver flags ********
SCF tol = 1e-09
conv_tol_grad = None
max. SCF cycles = 100
direct_scf = True
direct_scf_tol = 1e-13
chkfile to save SCF result = /rc_scratch/ilsa8974/tmpuvngosuo
max_cycle_inner = 12
max_stepsize = 0.05
ah_start_tol = 1e+09
ah_level_shift = 0
ah_conv_tol = 1e-12
ah_lindep = 1e-14
ah_start_cycle = 1
ah_max_cycle = 40
ah_grad_trust_region = 2.5
kf_interval = 4
kf_trust_region = 5
canonicalization = True
max_memory 4000 MB (current use 64 MB)
Set conv_tol_grad to 3.16228e-05
  alpha nocc = 4  HOMO = -0.0466552470493798  LUMO = -0.0454354375687048
  beta  nocc = 2  HOMO = -0.677211193276681  LUMO = -0.0472715598893717

WARN: system HOMO -0.0466552470493798 >= system LUMO -0.0472715598893717

  alpha mo_energy =
[-11.23219796  -0.67721119  -0.04727156  -0.04665525  -0.04543544
   0.49255614   0.49281193   0.49445353   0.53756572   0.88569741
   0.88615535   0.88625427   0.88692321   0.88733918   2.35700222
   2.3573571    2.36036851   2.99765849   2.99836586   2.99868004
   2.99902921   2.99938679   2.999981     3.00042379   3.32514521
   3.32586474   3.32620627   3.32678887   3.32821008   4.19135345]
  beta  mo_energy =
[-11.23219796  -0.67721119  -0.04727156  -0.04665525  -0.04543544
   0.49255614   0.49281193   0.49445353   0.53756572   0.88569741
   0.88615535   0.88625427   0.88692321   0.88733918   2.35700222
   2.3573571    2.36036851   2.99765849   2.99836586   2.99868004
   2.99902921   2.99938679   2.999981     3.00042379   3.32514521
   3.32586474   3.32620627   3.32678887   3.32821008   4.19135345]
multiplicity <S^2> = 2  2S+1 = 3
E1 = -49.66128551515967  Ecoul = 12.019982325537889
Initial guess E= -37.6413031896218  |g|= 0.207823
    CPU time for initializing second order scf      0.02 sec, wall time      0.09 sec
    |g|= 0.208 (keyframe)
    imic 1(1)  |g|= 0.252  |dxi|= 0.11  max(|x|)= 0.0571  |dr|= 0.11  eig= -0.026  seig= 0.0432
    imic 2(2)  |g|= 0.108  |dxi|= 0.0896  max(|x|)= 0.0925  |dr|= 0.187  eig= -0.0232  seig= 0.00595
    imic 3(3)  |g|= 0.0116  |dxi|= 0.0985  max(|x|)= 0.0541  |dr|= 0.274  eig= -0.0069  seig= 0.00064
E1 = -50.45326931109647  Ecoul = 12.761786687824102
Adjust keyframe g_orb to |g|= 0.0143  |g-correction|=0.00959  E=-37.6914826233 dE=-0.050179
    imic 4(4)  |g|= 0.00908  |dxi|= 0.00559  max(|x|)= 0.00326  |dr|= 0.00559  eig= -5.24e-05  seig= 9e-06
    imic 5(5)  |g|= 0.00116  |dxi|= 0.00468  max(|x|)= 0.00298  |dr|= 0.00846  eig= -3.31e-05  seig= 7.46e-06
    imic 6(6)  |g|= 0.000118  |dxi|= 0.000535  max(|x|)= 0.000241  |dr|= 0.00854  eig= -3.94e-07  seig= 9.56e-08
E1 = -50.4513386886497  Ecoul = 12.759769729589273
Adjust keyframe g_orb to |g|= 0.00053  |g-correction|=0.000567  E=-37.6915689591 dE=-8.6336e-05
Out of trust region. Restore previouse step
    tot inner=6  9 JK  |g|= 0.00116  |u-1|= 0.000535
    CPU time for aug_hess in 6 inner iters      0.02 sec, wall time      0.02 sec
  alpha nocc = 4  HOMO = -0.437709917366796  LUMO = 0.0351401931138977
  beta  nocc = 2  HOMO = -0.58362028775832  LUMO = 0.0686502180147591
  alpha mo_energy =
[-11.34451693  -0.82813367  -0.43772117  -0.43770992   0.03514019
   0.42353649   0.42354149   0.48862335   0.49583315   0.82012384
   0.82012386   0.83882057   0.8388223    0.8466562    2.25695455
   2.25695932   2.29609706   2.93383097   2.93572412   2.93572524
   2.94137299   2.94137299   2.95062393   2.95062393   3.23007727
   3.23007728   3.2390176    3.23901902   3.24232417   4.12487611]
  beta  mo_energy =
[-11.29986923  -0.58362029   0.06865022   0.12193591   0.1219361
   0.51551423   0.55721012   0.56340448   0.56340639   0.88923685
   0.89978794   0.8997883    0.93538949   0.9353895    2.32195096
   2.3777962    2.37779906   2.9742824    2.9814938    2.98149554
   3.00337832   3.00337833   3.04108183   3.04108183   3.30212842
   3.31870354   3.31870652   3.37096085   3.37096085   4.18672566]
multiplicity <S^2> = 2.0089687  2S+1 = 3.0059732
E1 = -50.451566306045905  Ecoul = 12.759997773961718
macro= 0  E= -37.6915685320842  delta_E= -0.0502653  |g|= 0.0143316  3 KF 9 JK
    CPU time for cycle= 1      0.03 sec, wall time      0.03 sec
    |g|= 0.00131 (keyframe), |g-correction|= 0.000559
    imic 1(1)  |g|= 0.000534  |dxi|= 0.000561  max(|x|)= 0.000253  |dr|= 0.000561  eig= -4.28e-07  seig= 2.86e-07
    imic 2(2)  |g|= 0.000181  |dxi|= 0.000456  max(|x|)= 0.000225  |dr|= 0.000711  eig= -1.89e-07  seig= 1.12e-07
    imic 3(3)  |g|= 4.35e-05  |dxi|= 0.000168  max(|x|)= 0.000136  |dr|= 0.000787  eig= -2.04e-08  seig= 8.59e-09
E1 = -50.452358141469766  Ecoul = 12.760788972011493
Adjust keyframe g_orb to |g|= 4.35e-05  |g-correction|=8.55e-08  E=-37.6915691695 dE=-6.3737e-07
    imic 4(4)  |g|= 3.29e-05  |dxi|= 5.14e-05  max(|x|)= 3.36e-05  |dr|= 5.14e-05  eig= -1.46e-09  seig= 5.5e-10
    imic 5(5)  |g|= 2.04e-05  |dxi|= 0.000104  max(|x|)= 7.99e-05  |dr|= 0.000151  eig= -1.44e-09  seig= 1.35e-10
    imic 6(6)  |g|= 9.61e-06  |dxi|= 3.43e-05  max(|x|)= 2.52e-05  |dr|= 0.000177  eig= -3.14e-10  seig= 8.74e-11
    tot inner=6  8 JK  |g|= 9.61e-06  |u-1|= 0.000177
    CPU time for aug_hess in 6 inner iters      0.02 sec, wall time      0.06 sec
  alpha nocc = 4  HOMO = -0.43770841807824  LUMO = 0.0352715224076912
  beta  nocc = 2  HOMO = -0.583426048347733  LUMO = 0.0686603888842774
  alpha mo_energy =
[-11.34429994  -0.82812157  -0.43770844  -0.43770842   0.03527152
   0.42354201   0.42354202   0.48869417   0.4958485    0.82017416
   0.82017416   0.83889468   0.83889468   0.84673429   2.25705393
   2.25705396   2.29626096   2.93392287   2.93581477   2.93581477
   2.9414561    2.9414561    2.95069018   2.95069018   3.2301547
   3.2301547    3.23913102   3.23913103   3.24244337   4.12498427]
  beta  mo_energy =
[-11.29948046  -0.58342605   0.06866039   0.12201409   0.1220141
   0.5155939    0.55731484   0.56353591   0.56353591   0.88925452
   0.89980936   0.89980937   0.93543202   0.93543202   2.32210369
   2.37798329   2.3779833    2.9743586    2.98157348   2.98157349
   3.00346582   3.00346582   3.04118773   3.04118773   3.30228292
   3.31886836   3.31886837   3.37115831   3.37115831   4.18694183]
multiplicity <S^2> = 2.0090368  2S+1 = 3.0060185
E1 = -50.452393484406265  Ecoul = 12.760824311732549
macro= 1  E= -37.6915691726737  delta_E= -6.4059e-07  |g|= 4.34869e-05  2 KF 8 JK
    CPU time for cycle= 2      0.02 sec, wall time      0.06 sec
    |g|= 9.61e-06 (keyframe), |g-correction|= 3.48e-08
    imic 1(1)  |g|= 9.62e-06  |dxi|= 2.02e-08  max(|x|)= 1.49e-08  |dr|= 2.02e-08  eig= -1.09e-16  seig= 1.18e-09
    tot inner=1  2 JK  |g|= 9.62e-06  |u-1|= 2.02e-08
    CPU time for aug_hess in 1 inner iters      0.01 sec, wall time      0.05 sec
  alpha nocc = 4  HOMO = -0.43770841787326  LUMO = 0.0352715233811977
  beta  nocc = 2  HOMO = -0.583426048246629  LUMO = 0.0686603889194752
  alpha mo_energy =
[-11.34429993  -0.82812157  -0.43770844  -0.43770842   0.03527152
   0.42354201   0.42354202   0.48869417   0.4958485    0.82017416
   0.82017416   0.83889468   0.83889468   0.84673429   2.25705393
   2.25705396   2.29626096   2.93392287   2.93581477   2.93581477
   2.9414561    2.9414561    2.95069018   2.95069018   3.2301547
   3.2301547    3.23913102   3.23913104   3.24244337   4.12498427]
  beta  mo_energy =
[-11.29948045  -0.58342605   0.06866039   0.12201409   0.1220141
   0.5155939    0.55731484   0.56353591   0.56353591   0.88925452
   0.89980936   0.89980938   0.93543202   0.93543202   2.32210369
   2.3779833    2.3779833    2.9743586    2.98157348   2.9815735
   3.00346582   3.00346582   3.04118773   3.04118773   3.30228292
   3.31886836   3.31886837   3.37115831   3.37115831   4.18694183]
multiplicity <S^2> = 2.0090368  2S+1 = 3.0060185
E1 = -50.452393489430634  Ecoul = 12.760824316756915
macro= 2  E= -37.6915691726737  delta_E= 0  |g|= 9.60891e-06  1 KF 2 JK
    CPU time for cycle= 3      0.01 sec, wall time      0.05 sec
Canonicalize SCF orbitals
macro X = 3  E=-37.6915691726737  |g|= 9.60891e-06  total 7 KF 23 JK
    CPU time for Second order SCF      0.08 sec, wall time      0.26 sec
converged SCF energy = -37.6915691726737  <S^2> = 2.0090368  2S+1 = 3.0060185
**** SCF Summaries ****
Total Energy =                         -37.691569172673717
Nuclear Repulsion Energy =               0.000000000000000
One-electron Energy =                  -50.452393489430634
Two-electron Energy =                   12.760824316756915
**** MO energy ****
                             alpha | beta                alpha | beta
MO #1   energy= -11.3442999326619  | -11.2994804544128  occ= 1 | 1
MO #2   energy= -0.828121567233683 | -0.583426048229711 occ= 1 | 1
MO #3   energy= -0.437708435510712 | 0.0686603889190081 occ= 1 | 0
MO #4   energy= -0.437708417868023 | 0.122014090137881  occ= 1 | 0
MO #5   energy= 0.0352715233809296 | 0.122014100084753  occ= 0 | 0
MO #6   energy= 0.423542005608321  | 0.51559389787148   occ= 0 | 0
MO #7   energy= 0.423542021580621  | 0.557314835452825  occ= 0 | 0
MO #8   energy= 0.488694169410088  | 0.563535906137184  occ= 0 | 0
MO #9   energy= 0.495848499404586  | 0.563535913998034  occ= 0 | 0
MO #10  energy= 0.82017416254763   | 0.889254516047594  occ= 0 | 0
MO #11  energy= 0.820174162614988  | 0.899809362519612  occ= 0 | 0
MO #12  energy= 0.838894681714695  | 0.899809375148089  occ= 0 | 0
MO #13  energy= 0.838894683350356  | 0.93543202224167   occ= 0 | 0
MO #14  energy= 0.846734291346826  | 0.935432022258243  occ= 0 | 0
MO #15  energy= 2.25705392894356   | 2.32210368620338   occ= 0 | 0
MO #16  energy= 2.25705395968749   | 2.37798329589043   occ= 0 | 0
MO #17  energy= 2.29626095687447   | 2.37798330396675   occ= 0 | 0
MO #18  energy= 2.93392287199599   | 2.97435859699458   occ= 0 | 0
MO #19  energy= 2.93581476688051   | 2.98157347956573   occ= 0 | 0
MO #20  energy= 2.93581477424776   | 2.98157349500131   occ= 0 | 0
MO #21  energy= 2.94145609760799   | 3.00346581870951   occ= 0 | 0
MO #22  energy= 2.94145609762838   | 3.00346581872569   occ= 0 | 0
MO #23  energy= 2.95069018022821   | 3.04118773367928   occ= 0 | 0
MO #24  energy= 2.95069018022822   | 3.0411877336793    occ= 0 | 0
MO #25  energy= 3.23015469846597   | 3.30228292219109   occ= 0 | 0
MO #26  energy= 3.23015469851691   | 3.31886836206028   occ= 0 | 0
MO #27  energy= 3.2391310233045    | 3.31886837214622   occ= 0 | 0
MO #28  energy= 3.23913103501784   | 3.37115830734621   occ= 0 | 0
MO #29  energy= 3.24244336880659   | 3.37115830736728   occ= 0 | 0
MO #30  energy= 4.12498427395965   | 4.18694183160277   occ= 0 | 0
 ** MO coefficients (expansion on meta-Lowdin AOs) for alpha spin **
               #1        #2        #3        #4        #5       
  0 C 1s       0.99999  -0.00019   0.00000   0.00000   0.00000
  0 C 2s      -0.00023  -0.99924   0.00000   0.00001   0.00001
  0 C 3s       0.00265   0.00145  -0.00000  -0.00000  -0.00000
  0 C 4s       0.00121   0.00197  -0.00000  -0.00000   0.00000
  0 C 2px      0.00000  -0.00001   0.08890  -0.92425  -0.35190
  0 C 2py     -0.00000   0.00000   0.91545   0.22087  -0.31829
  0 C 2pz     -0.00000   0.00000   0.38976  -0.30796   0.82785
  0 C 3px      0.00000  -0.00000  -0.00405   0.04209   0.10731
  0 C 3py     -0.00000   0.00000  -0.04169  -0.01006   0.09707
  0 C 3pz      0.00000  -0.00000  -0.01775   0.01403  -0.25246
  0 C 4px      0.00000   0.00000   0.00070  -0.00724  -0.02570
  0 C 4py     -0.00000  -0.00000   0.00717   0.00173  -0.02324
  0 C 4pz      0.00000  -0.00000   0.00305  -0.00241   0.06045
  0 C 3dxy    -0.00026   0.00830   0.00000   0.00000  -0.00000
  0 C 3dyz     0.00062  -0.01953  -0.00000   0.00000   0.00000
  0 C 3dz^2   -0.00077   0.02451  -0.00000   0.00000  -0.00000
  0 C 3dxz     0.00068  -0.02159   0.00000  -0.00000   0.00000
 0 C 3dx2-y2  -0.00003   0.00083   0.00000  -0.00000  -0.00000
  0 C 4dxy     0.00015   0.00048   0.00000   0.00000  -0.00000
  0 C 4dyz    -0.00036  -0.00112  -0.00000   0.00000   0.00000
  0 C 4dz^2    0.00045   0.00141  -0.00000   0.00000  -0.00000
  0 C 4dxz    -0.00039  -0.00124   0.00000  -0.00000   0.00000
 0 C 4dx2-y2   0.00002   0.00005   0.00000  -0.00000  -0.00000
  0 C 4fy^3   -0.00000   0.00000  -0.00006   0.00028   0.00012
  0 C 4fxyz   -0.00000  -0.00000   0.00056  -0.00033  -0.00061
  0 C 4fyz^2   0.00000   0.00000  -0.00046  -0.00049   0.00083
  0 C 4fz^3    0.00000   0.00000  -0.00086   0.00068  -0.00049
  0 C 4fxz^2   0.00000   0.00000   0.00033   0.00051   0.00092
  0 C 4fzx^2   0.00000  -0.00000  -0.00050  -0.00073  -0.00006
  0 C 4fx^3    0.00000   0.00000   0.00028   0.00010  -0.00009
               #6        #7        #8        #9        #10      
  0 C 1s      -0.00000   0.00000  -0.00000  -0.00261   0.00000
  0 C 2s      -0.00000   0.00000  -0.00000   0.00044  -0.00000
  0 C 3s       0.00001  -0.00002   0.00014   0.99848  -0.00000
  0 C 4s      -0.00000   0.00000  -0.00001  -0.04945   0.00000
  0 C 2px      0.02536  -0.03383   0.10933  -0.00002  -0.00000
  0 C 2py      0.03036   0.03028   0.09889  -0.00001   0.00000
  0 C 2pz      0.02245  -0.00274  -0.25720   0.00004   0.00000
  0 C 3px      0.52463  -0.69993   0.32741  -0.00006  -0.00000
  0 C 3py      0.62815   0.62647   0.29614  -0.00003   0.00000
  0 C 3pz      0.46452  -0.05666  -0.77025   0.00010   0.00000
  0 C 4px     -0.18686   0.24930  -0.12983   0.00002  -0.00000
  0 C 4py     -0.22374  -0.22314  -0.11743   0.00001   0.00000
  0 C 4pz     -0.16545   0.02018   0.30544  -0.00004   0.00000
  0 C 3dxy     0.00000   0.00000  -0.00000  -0.00490  -0.81567
  0 C 3dyz    -0.00000  -0.00000   0.00000   0.01152  -0.29810
  0 C 3dz^2   -0.00000   0.00000  -0.00000  -0.01446  -0.19861
  0 C 3dxz     0.00000   0.00000   0.00000   0.01274  -0.26988
 0 C 3dx2-y2   0.00000  -0.00000   0.00000  -0.00049  -0.01180
  0 C 4dxy    -0.00000  -0.00000  -0.00000  -0.00157  -0.32002
  0 C 4dyz     0.00000  -0.00000   0.00000   0.00370  -0.11696
  0 C 4dz^2   -0.00000  -0.00000  -0.00000  -0.00465  -0.07792
  0 C 4dxz    -0.00000  -0.00000   0.00000   0.00409  -0.10588
 0 C 4dx2-y2  -0.00000   0.00000  -0.00000  -0.00016  -0.00463
  0 C 4fy^3    0.00004  -0.00004   0.00000  -0.00000  -0.00000
  0 C 4fxyz   -0.00012  -0.00000  -0.00000   0.00000  -0.00000
  0 C 4fyz^2   0.00002   0.00012   0.00000   0.00000   0.00000
  0 C 4fz^3    0.00020  -0.00002  -0.00000  -0.00000   0.00000
  0 C 4fxz^2  -0.00000  -0.00011   0.00000  -0.00000  -0.00000
  0 C 4fzx^2   0.00001   0.00016  -0.00000   0.00000  -0.00000
  0 C 4fx^3   -0.00003  -0.00004  -0.00000  -0.00000  -0.00000
               #11       #12       #13       #14       #15      
  0 C 1s       0.00000  -0.00000   0.00000   0.00081  -0.00000
  0 C 2s      -0.00000   0.00000  -0.00000   0.03694  -0.00000
  0 C 3s      -0.00000  -0.00000   0.00000   0.02397  -0.00000
  0 C 4s       0.00000   0.00000  -0.00000  -0.00214   0.00000
  0 C 2px      0.00000  -0.00000   0.00000   0.00000   0.00551
  0 C 2py      0.00000   0.00000   0.00000  -0.00000   0.00406
  0 C 2pz      0.00000   0.00000  -0.00000   0.00000   0.00390
  0 C 3px      0.00000  -0.00000   0.00000  -0.00000   0.23444
  0 C 3py      0.00000   0.00000   0.00000  -0.00000   0.17267
  0 C 3pz      0.00000   0.00000  -0.00000   0.00000   0.16604
  0 C 4px      0.00000  -0.00000   0.00000   0.00000   0.65893
  0 C 4py      0.00000   0.00000   0.00000   0.00000   0.48532
  0 C 4pz      0.00000   0.00000  -0.00000  -0.00000   0.46669
  0 C 3dxy     0.01028  -0.31249  -0.25096   0.19712   0.00000
  0 C 3dyz     0.31872   0.64563  -0.19536  -0.46373  -0.00000
  0 C 3dz^2   -0.01725   0.48681   0.49328   0.58198  -0.00000
  0 C 3dxz    -0.33513  -0.13998   0.62659  -0.51270   0.00000
 0 C 3dx2-y2  -0.80765   0.29849  -0.35082   0.01982   0.00000
  0 C 4dxy     0.00403  -0.12600  -0.10118   0.08035  -0.00000
  0 C 4dyz     0.12505   0.26031  -0.07877  -0.18902   0.00000
  0 C 4dz^2   -0.00677   0.19628   0.19889   0.23722   0.00000
  0 C 4dxz    -0.13148  -0.05644   0.25264  -0.20898  -0.00000
 0 C 4dx2-y2  -0.31687   0.12035  -0.14145   0.00808  -0.00000
  0 C 4fy^3    0.00000  -0.00000  -0.00000   0.00000  -0.00140
  0 C 4fxyz    0.00000   0.00000  -0.00000  -0.00000   0.00378
  0 C 4fyz^2  -0.00000  -0.00000   0.00000  -0.00000   0.00002
  0 C 4fz^3    0.00000   0.00000  -0.00000   0.00000  -0.00655
  0 C 4fxz^2   0.00000   0.00000   0.00000   0.00000  -0.00068
  0 C 4fzx^2  -0.00000  -0.00000   0.00000  -0.00000   0.00085
  0 C 4fx^3   -0.00000   0.00000  -0.00000   0.00000   0.00083
               #16       #17       #18       #19       #20      
  0 C 1s       0.00000  -0.00000   0.00000  -0.00000   0.00000
  0 C 2s       0.00000  -0.00000  -0.00000   0.00000   0.00000
  0 C 3s       0.00000  -0.00000  -0.00000   0.00000   0.00000
  0 C 4s      -0.00000   0.00000   0.00000  -0.00000  -0.00000
  0 C 2px     -0.00482   0.01496  -0.00068   0.00086   0.00092
  0 C 2py      0.00621   0.01353  -0.00061   0.00080  -0.00099
  0 C 2pz      0.00034  -0.03519   0.00159   0.00067   0.00001
  0 C 3px     -0.20519   0.13150  -0.00120   0.00148   0.00159
  0 C 3py      0.26463   0.11894  -0.00109   0.00138  -0.00172
  0 C 3pz      0.01452  -0.30935   0.00283   0.00116   0.00001
  0 C 4px     -0.57674   0.34421  -0.00361   0.00473   0.00506
  0 C 4py      0.74380   0.31133  -0.00326   0.00440  -0.00547
  0 C 4pz      0.04082  -0.80975   0.00849   0.00370   0.00005
  0 C 3dxy     0.00000   0.00000   0.00000   0.00000   0.00000
  0 C 3dyz    -0.00000   0.00000   0.00000  -0.00000   0.00000
  0 C 3dz^2    0.00000  -0.00000  -0.00000  -0.00000   0.00000
  0 C 3dxz     0.00000  -0.00000  -0.00000  -0.00000  -0.00000
 0 C 3dx2-y2  -0.00000   0.00000   0.00000  -0.00000   0.00000
  0 C 4dxy    -0.00000  -0.00000  -0.00000  -0.00000  -0.00000
  0 C 4dyz     0.00000  -0.00000  -0.00000   0.00000  -0.00000
  0 C 4dz^2   -0.00000   0.00000   0.00000   0.00000  -0.00000
  0 C 4dxz    -0.00000   0.00000   0.00000   0.00000   0.00000
 0 C 4dx2-y2   0.00000  -0.00000  -0.00000   0.00000  -0.00000
  0 C 4fy^3    0.00099  -0.00081  -0.07825   0.16544   0.14410
  0 C 4fxyz    0.00087   0.00429   0.41334  -0.49293   0.06213
  0 C 4fyz^2  -0.00402  -0.00585  -0.56449   0.04867  -0.51182
  0 C 4fz^3   -0.00057   0.00343   0.33123   0.84147   0.01044
  0 C 4fxz^2   0.00358  -0.00647  -0.62410   0.04102   0.46399
  0 C 4fzx^2  -0.00525   0.00043   0.04156  -0.04106  -0.67927
  0 C 4fx^3    0.00158   0.00060   0.05767  -0.12561   0.19119
               #21       #22       #23       #24       #25      
  0 C 1s       0.00000   0.00000   0.00000   0.00000  -0.00000
  0 C 2s      -0.00000  -0.00000   0.00000   0.00000  -0.00000
  0 C 3s      -0.00000  -0.00000   0.00000   0.00000   0.00000
  0 C 4s      -0.00000   0.00000   0.00000   0.00000  -0.00000
  0 C 2px     -0.00000  -0.00000   0.00000   0.00000  -0.00000
  0 C 2py      0.00000  -0.00000   0.00000  -0.00000   0.00000
  0 C 2pz     -0.00000  -0.00000   0.00000   0.00000   0.00000
  0 C 3px      0.00000  -0.00000   0.00000   0.00000  -0.00000
  0 C 3py      0.00000   0.00000   0.00000  -0.00000   0.00000
  0 C 3pz     -0.00000   0.00000   0.00000   0.00000   0.00000
  0 C 4px      0.00000   0.00000   0.00000   0.00000  -0.00000
  0 C 4py      0.00000   0.00000   0.00000  -0.00000   0.00000
  0 C 4pz     -0.00000  -0.00000   0.00000   0.00000   0.00000
  0 C 3dxy     0.00000  -0.00000   0.00000   0.00000  -0.32002
  0 C 3dyz    -0.00000   0.00000   0.00000   0.00000  -0.11693
  0 C 3dz^2   -0.00000   0.00000  -0.00000   0.00000  -0.07792
  0 C 3dxz     0.00000   0.00000  -0.00000   0.00000  -0.10591
 0 C 3dx2-y2  -0.00000  -0.00000  -0.00000   0.00000  -0.00468
  0 C 4dxy    -0.00000   0.00000  -0.00000  -0.00000   0.81567
  0 C 4dyz     0.00000  -0.00000  -0.00000  -0.00000   0.29805
  0 C 4dz^2    0.00000  -0.00000   0.00000  -0.00000   0.19861
  0 C 4dxz    -0.00000  -0.00000   0.00000  -0.00000   0.26994
 0 C 4dx2-y2   0.00000   0.00000   0.00000  -0.00000   0.01194
  0 C 4fy^3    0.40096  -0.34943   0.21628   0.78491   0.00000
  0 C 4fxyz   -0.54539  -0.00343   0.45008   0.28677   0.00000
  0 C 4fyz^2  -0.37428  -0.47533   0.21930  -0.05342  -0.00000
  0 C 4fz^3   -0.41390   0.03591   0.07641   0.06010  -0.00000
  0 C 4fxz^2  -0.32590   0.48759   0.02179   0.22148   0.00000
  0 C 4fzx^2  -0.01093   0.50574  -0.28306   0.44624   0.00000
  0 C 4fx^3   -0.35222  -0.39641  -0.78493   0.21686   0.00000
               #26       #27       #28       #29       #30      
  0 C 1s       0.00000  -0.00000   0.00000   0.00113   0.00133
  0 C 2s       0.00000   0.00000  -0.00000   0.01260  -0.00216
  0 C 3s      -0.00000   0.00000  -0.00000   0.00146  -0.04950
  0 C 4s      -0.00000  -0.00000   0.00000  -0.00742  -0.99874
  0 C 2px      0.00000   0.00000   0.00000   0.00000   0.00000
  0 C 2py      0.00000   0.00000  -0.00000  -0.00000  -0.00000
  0 C 2pz      0.00000   0.00000  -0.00000   0.00000  -0.00000
  0 C 3px      0.00000   0.00000   0.00000   0.00000   0.00000
  0 C 3py      0.00000   0.00000  -0.00000  -0.00000  -0.00000
  0 C 3pz      0.00000  -0.00000  -0.00000   0.00000  -0.00000
  0 C 4px      0.00000   0.00000   0.00000   0.00000   0.00000
  0 C 4py      0.00000   0.00000  -0.00000  -0.00000  -0.00000
  0 C 4pz      0.00000  -0.00000  -0.00000   0.00000  -0.00000
  0 C 3dxy     0.00409  -0.16105   0.01333   0.08032  -0.00076
  0 C 3dyz     0.12507   0.13461  -0.23632  -0.18895   0.00179
  0 C 3dz^2   -0.00675   0.27928   0.00917   0.23712  -0.00225
  0 C 3dxz    -0.13146   0.13296   0.22211  -0.20890   0.00198
 0 C 3dx2-y2  -0.31687  -0.01006  -0.18545   0.00808  -0.00008
  0 C 4dxy    -0.01042   0.39942  -0.03306  -0.19733   0.00137
  0 C 4dyz    -0.31878  -0.33386   0.58612   0.46423  -0.00323
  0 C 4dz^2    0.01721  -0.69267  -0.02273  -0.58261   0.00405
  0 C 4dxz     0.33508  -0.32976  -0.55088   0.51325  -0.00357
 0 C 4dx2-y2   0.80765   0.02496   0.45995  -0.01984   0.00014
  0 C 4fy^3   -0.00000   0.00000  -0.00000  -0.00000   0.00000
  0 C 4fxyz   -0.00000  -0.00000   0.00000   0.00000  -0.00000
  0 C 4fyz^2   0.00000   0.00000  -0.00000   0.00000  -0.00000
  0 C 4fz^3   -0.00000   0.00000   0.00000  -0.00000   0.00000
  0 C 4fxz^2  -0.00000  -0.00000  -0.00000  -0.00000   0.00000
  0 C 4fzx^2   0.00000  -0.00000  -0.00000   0.00000  -0.00000
  0 C 4fx^3    0.00000   0.00000   0.00000  -0.00000   0.00000
 ** MO coefficients (expansion on meta-Lowdin AOs) for beta spin **
               #1        #2        #3        #4        #5       
  0 C 1s      -0.99999  -0.00494   0.00000   0.00000  -0.00000
  0 C 2s       0.00493  -0.99755   0.00001   0.00001  -0.00001
  0 C 3s      -0.00063   0.05953  -0.00000  -0.00000   0.00000
  0 C 4s       0.00067   0.00164   0.00000   0.00000  -0.00000
  0 C 2px     -0.00000   0.00002   0.34545   0.71330  -0.46028
  0 C 2py      0.00000  -0.00000   0.31245   0.36064   0.78181
  0 C 2pz     -0.00000  -0.00000  -0.81267   0.44186   0.10493
  0 C 3px     -0.00000  -0.00000  -0.12501  -0.30598   0.19744
  0 C 3py      0.00000   0.00000  -0.11307  -0.15470  -0.33537
  0 C 3pz     -0.00000  -0.00000   0.29409  -0.18954  -0.04501
  0 C 4px     -0.00000   0.00000   0.03207   0.08671  -0.05595
  0 C 4py      0.00000  -0.00000   0.02900   0.04384   0.09504
  0 C 4pz     -0.00000   0.00000  -0.07543   0.05372   0.01276
  0 C 3dxy    -0.00007  -0.00771  -0.00000  -0.00000  -0.00000
  0 C 3dyz     0.00018   0.01814   0.00000  -0.00000   0.00000
  0 C 3dz^2   -0.00022  -0.02276  -0.00000   0.00000  -0.00000
  0 C 3dxz     0.00019   0.02005   0.00000  -0.00000  -0.00000
 0 C 3dx2-y2  -0.00001  -0.00078  -0.00000  -0.00000   0.00000
  0 C 4dxy     0.00011  -0.00051   0.00000  -0.00000   0.00000
  0 C 4dyz    -0.00026   0.00120   0.00000  -0.00000   0.00000
  0 C 4dz^2    0.00032  -0.00150  -0.00000   0.00000  -0.00000
  0 C 4dxz    -0.00029   0.00132  -0.00000   0.00000  -0.00000
 0 C 4dx2-y2   0.00001  -0.00005   0.00000   0.00000   0.00000
  0 C 4fy^3    0.00000   0.00000   0.00096   0.00189  -0.00096
  0 C 4fxyz    0.00000  -0.00000  -0.00506  -0.00447  -0.00174
  0 C 4fyz^2  -0.00000  -0.00000   0.00690  -0.00074   0.00490
  0 C 4fz^3   -0.00000   0.00000  -0.00405   0.00790   0.00188
  0 C 4fxz^2  -0.00000   0.00000   0.00763   0.00147  -0.00424
  0 C 4fzx^2  -0.00000  -0.00000  -0.00051  -0.00198   0.00626
  0 C 4fx^3   -0.00000   0.00000  -0.00071  -0.00073  -0.00208
               #6        #7        #8        #9        #10      
  0 C 1s      -0.00000   0.00038  -0.00000   0.00000   0.00030
  0 C 2s      -0.00000  -0.05962   0.00001  -0.00001   0.03351
  0 C 3s       0.00002  -0.99633   0.00007  -0.00008  -0.01397
  0 C 4s      -0.00000   0.05876  -0.00000   0.00001   0.00488
  0 C 2px     -0.12797   0.00003   0.28895  -0.24086   0.00000
  0 C 2py     -0.11575  -0.00002   0.20072   0.32445  -0.00000
  0 C 2pz      0.30106   0.00002   0.20000   0.02236   0.00000
  0 C 3px     -0.32032   0.00008   0.60249  -0.50222   0.00000
  0 C 3py     -0.28972  -0.00003   0.41853   0.67652  -0.00000
  0 C 3pz      0.75355   0.00004   0.41702   0.04663   0.00000
  0 C 4px      0.13044  -0.00003  -0.25149   0.20963  -0.00000
  0 C 4py      0.11798   0.00001  -0.17470  -0.28238   0.00000
  0 C 4pz     -0.30685  -0.00002  -0.17407  -0.01946  -0.00000
  0 C 3dxy     0.00000   0.00129  -0.00000  -0.00000  -0.19625
  0 C 3dyz    -0.00000  -0.00304   0.00000   0.00000   0.46169
  0 C 3dz^2    0.00000   0.00382   0.00000  -0.00000  -0.57941
  0 C 3dxz    -0.00000  -0.00336  -0.00000  -0.00000   0.51044
 0 C 3dx2-y2   0.00000   0.00013  -0.00000   0.00000  -0.01973
  0 C 4dxy     0.00000   0.00364  -0.00000  -0.00000  -0.08262
  0 C 4dyz     0.00000  -0.00856   0.00000  -0.00000   0.19435
  0 C 4dz^2   -0.00000   0.01075  -0.00000   0.00000  -0.24391
  0 C 4dxz    -0.00000  -0.00947   0.00000  -0.00000   0.21488
 0 C 4dx2-y2   0.00000   0.00037  -0.00000   0.00000  -0.00831
  0 C 4fy^3   -0.00083   0.00000   0.00173  -0.00117  -0.00000
  0 C 4fxyz    0.00436  -0.00000  -0.00459  -0.00117   0.00000
  0 C 4fyz^2  -0.00596  -0.00000  -0.00014   0.00490   0.00000
  0 C 4fz^3    0.00350   0.00000   0.00797   0.00089  -0.00000
  0 C 4fxz^2  -0.00659   0.00000   0.00093  -0.00434  -0.00000
  0 C 4fzx^2   0.00044  -0.00000  -0.00119   0.00637   0.00000
  0 C 4fx^3    0.00061   0.00000  -0.00096  -0.00195  -0.00000
               #11       #12       #13       #14       #15      
  0 C 1s       0.00000   0.00000   0.00000  -0.00000   0.00000
  0 C 2s       0.00000   0.00000  -0.00000   0.00000  -0.00000
  0 C 3s       0.00000  -0.00000   0.00000   0.00000  -0.00000
  0 C 4s      -0.00000  -0.00000  -0.00000  -0.00000   0.00000
  0 C 2px     -0.00000  -0.00000   0.00000  -0.00000  -0.01648
  0 C 2py     -0.00000   0.00000   0.00000   0.00000  -0.01491
  0 C 2pz     -0.00000   0.00000   0.00000   0.00000   0.03877
  0 C 3px     -0.00000  -0.00000   0.00000  -0.00000  -0.13333
  0 C 3py     -0.00000   0.00000   0.00000   0.00000  -0.12060
  0 C 3pz      0.00000   0.00000   0.00000   0.00000   0.31366
  0 C 4px      0.00000   0.00000  -0.00000   0.00000  -0.34336
  0 C 4py      0.00000  -0.00000  -0.00000  -0.00000  -0.31057
  0 C 4pz     -0.00000  -0.00000  -0.00000  -0.00000   0.80777
  0 C 3dxy    -0.38605   0.09728  -0.01030   0.80580  -0.00000
  0 C 3dyz     0.23195  -0.62862  -0.31492   0.29444  -0.00000
  0 C 3dz^2    0.68249  -0.09025   0.01700   0.19621   0.00000
  0 C 3dxz     0.41265   0.48627   0.33103   0.26667   0.00000
 0 C 3dx2-y2  -0.09918  -0.44668   0.79787   0.01179  -0.00000
  0 C 4dxy    -0.16297   0.04107  -0.00440   0.34412   0.00000
  0 C 4dyz     0.09792  -0.26537  -0.13449   0.12574   0.00000
  0 C 4dz^2    0.28811  -0.03810   0.00726   0.08379  -0.00000
  0 C 4dxz     0.17420   0.20528   0.14137   0.11389  -0.00000
 0 C 4dx2-y2  -0.04187  -0.18856   0.34074   0.00504   0.00000
  0 C 4fy^3   -0.00000   0.00000  -0.00000   0.00000   0.00166
  0 C 4fxyz   -0.00000  -0.00000  -0.00000   0.00000  -0.00878
  0 C 4fyz^2  -0.00000  -0.00000  -0.00000   0.00000   0.01200
  0 C 4fz^3    0.00000  -0.00000  -0.00000   0.00000  -0.00704
  0 C 4fxz^2   0.00000   0.00000   0.00000   0.00000   0.01326
  0 C 4fzx^2   0.00000  -0.00000   0.00000   0.00000  -0.00088
  0 C 4fx^3   -0.00000  -0.00000   0.00000   0.00000  -0.00123
               #16       #17       #18       #19       #20      
  0 C 1s       0.00000  -0.00000   0.00000  -0.00000  -0.00000
  0 C 2s      -0.00000   0.00000   0.00000   0.00000  -0.00000
  0 C 3s      -0.00000   0.00000  -0.00000  -0.00000   0.00000
  0 C 4s       0.00000  -0.00000   0.00000  -0.00000   0.00000
  0 C 2px     -0.03399   0.02363   0.00523  -0.00874   0.00668
  0 C 2py     -0.01889  -0.03750   0.00473  -0.00546  -0.00973
  0 C 2pz     -0.02171  -0.00437  -0.01230  -0.00582  -0.00090
  0 C 3px     -0.27983   0.19456  -0.00098   0.00192  -0.00146
  0 C 3py     -0.15553  -0.30870  -0.00089   0.00120   0.00213
  0 C 3pz     -0.17875  -0.03599   0.00231   0.00127   0.00020
  0 C 4px     -0.70907   0.49299  -0.00829   0.01452  -0.01109
  0 C 4py     -0.39409  -0.78222  -0.00749   0.00906   0.01615
  0 C 4pz     -0.45293  -0.09119   0.01949   0.00966   0.00150
  0 C 3dxy     0.00000  -0.00000   0.00000  -0.00000  -0.00000
  0 C 3dyz    -0.00000  -0.00000  -0.00000   0.00000   0.00000
  0 C 3dz^2   -0.00000  -0.00000   0.00000   0.00000  -0.00000
  0 C 3dxz    -0.00000   0.00000  -0.00000   0.00000  -0.00000
 0 C 3dx2-y2  -0.00000  -0.00000   0.00000  -0.00000   0.00000
  0 C 4dxy    -0.00000   0.00000  -0.00000   0.00000   0.00000
  0 C 4dyz     0.00000   0.00000   0.00000   0.00000  -0.00000
  0 C 4dz^2    0.00000   0.00000  -0.00000  -0.00000   0.00000
  0 C 4dxz     0.00000  -0.00000   0.00000  -0.00000   0.00000
 0 C 4dx2-y2   0.00000  -0.00000  -0.00000   0.00000  -0.00000
  0 C 4fy^3    0.00359  -0.00199  -0.07823   0.18699  -0.11467
  0 C 4fxyz   -0.00876  -0.00307   0.41322  -0.47571  -0.14290
  0 C 4fyz^2  -0.00111   0.00954  -0.56432  -0.03679   0.51269
  0 C 4fz^3    0.01542   0.00310   0.33113   0.83138   0.12907
  0 C 4fxz^2   0.00257  -0.00832  -0.62391   0.11730  -0.45068
  0 C 4fzx^2  -0.00341   0.01225   0.04155  -0.15298   0.66293
  0 C 4fx^3   -0.00155  -0.00399   0.05765  -0.09218  -0.20931
               #21       #22       #23       #24       #25      
  0 C 1s       0.00000   0.00000   0.00000   0.00000   0.00066
  0 C 2s      -0.00000   0.00000  -0.00000  -0.00000   0.01254
  0 C 3s       0.00000  -0.00000   0.00000  -0.00000   0.01189
  0 C 4s       0.00000   0.00000  -0.00000  -0.00000  -0.01352
  0 C 2px      0.00000  -0.00000   0.00000  -0.00000  -0.00000
  0 C 2py      0.00000  -0.00000  -0.00000  -0.00000  -0.00000
  0 C 2pz     -0.00000   0.00000  -0.00000  -0.00000   0.00000
  0 C 3px     -0.00000   0.00000  -0.00000   0.00000  -0.00000
  0 C 3py     -0.00000   0.00000   0.00000   0.00000  -0.00000
  0 C 3pz      0.00000  -0.00000   0.00000   0.00000   0.00000
  0 C 4px     -0.00000   0.00000  -0.00000   0.00000  -0.00000
  0 C 4py     -0.00000   0.00000   0.00000   0.00000   0.00000
  0 C 4pz      0.00000  -0.00000   0.00000   0.00000   0.00000
  0 C 3dxy    -0.00000  -0.00000  -0.00000   0.00000  -0.08261
  0 C 3dyz    -0.00000  -0.00000   0.00000   0.00000   0.19435
  0 C 3dz^2    0.00000  -0.00000  -0.00000   0.00000  -0.24391
  0 C 3dxz     0.00000  -0.00000  -0.00000   0.00000   0.21487
 0 C 3dx2-y2   0.00000  -0.00000  -0.00000  -0.00000  -0.00831
  0 C 4dxy     0.00000   0.00000   0.00000  -0.00000   0.19635
  0 C 4dyz     0.00000   0.00000  -0.00000  -0.00000  -0.46192
  0 C 4dz^2   -0.00000   0.00000   0.00000  -0.00000   0.57971
  0 C 4dxz    -0.00000  -0.00000   0.00000  -0.00000  -0.51070
 0 C 4dx2-y2  -0.00000   0.00000   0.00000   0.00000   0.01974
  0 C 4fy^3   -0.34934   0.40104  -0.01247   0.81407   0.00000
  0 C 4fxyz   -0.00356  -0.54539   0.35163   0.40146   0.00000
  0 C 4fyz^2  -0.47542  -0.37417   0.22548   0.01021  -0.00000
  0 C 4fz^3    0.03582  -0.41390   0.05649   0.07911   0.00000
  0 C 4fxz^2   0.48751  -0.32601  -0.04118   0.21871  -0.00000
  0 C 4fzx^2   0.50574  -0.01105  -0.39683   0.34897  -0.00000
  0 C 4fx^3   -0.39649  -0.35212  -0.81425  -0.01192   0.00000
               #26       #27       #28       #29       #30      
  0 C 1s       0.00000  -0.00000   0.00000   0.00000  -0.00066
  0 C 2s      -0.00000   0.00000  -0.00000  -0.00000  -0.00515
  0 C 3s      -0.00000   0.00000   0.00000   0.00000  -0.05878
  0 C 4s       0.00000   0.00000   0.00000   0.00000  -0.99817
  0 C 2px      0.00000  -0.00000  -0.00000   0.00000  -0.00000
  0 C 2py      0.00000   0.00000  -0.00000  -0.00000   0.00000
  0 C 2pz      0.00000   0.00000  -0.00000  -0.00000   0.00000
  0 C 3px      0.00000  -0.00000   0.00000  -0.00000  -0.00000
  0 C 3py      0.00000   0.00000   0.00000   0.00000  -0.00000
  0 C 3pz      0.00000  -0.00000   0.00000   0.00000   0.00000
  0 C 4px     -0.00000   0.00000   0.00000  -0.00000  -0.00000
  0 C 4py     -0.00000   0.00000   0.00000   0.00000  -0.00000
  0 C 4pz      0.00000  -0.00000   0.00000   0.00000   0.00000
  0 C 3dxy     0.16042   0.05010   0.00443  -0.34412   0.00022
  0 C 3dyz    -0.08296  -0.27042   0.13450  -0.12573  -0.00052
  0 C 3dz^2   -0.28554  -0.05411  -0.00725  -0.08379   0.00066
  0 C 3dxz    -0.18538   0.19524  -0.14136  -0.11390  -0.00058
 0 C 3dx2-y2   0.05232  -0.18593  -0.34074  -0.00506   0.00002
  0 C 4dxy    -0.38002  -0.11867  -0.01036   0.80580  -0.00285
  0 C 4dyz     0.19652   0.64058  -0.31494   0.29441   0.00671
  0 C 4dz^2    0.67639   0.12818   0.01699   0.19621  -0.00842
  0 C 4dxz     0.43914  -0.46249   0.33100   0.26670   0.00742
 0 C 4dx2-y2  -0.12394   0.44045   0.79787   0.01186  -0.00029
  0 C 4fy^3   -0.00000  -0.00000  -0.00000   0.00000  -0.00000
  0 C 4fxyz   -0.00000   0.00000  -0.00000   0.00000   0.00000
  0 C 4fyz^2  -0.00000   0.00000  -0.00000   0.00000   0.00000
  0 C 4fz^3    0.00000   0.00000  -0.00000   0.00000  -0.00000
  0 C 4fxz^2   0.00000  -0.00000   0.00000   0.00000  -0.00000
  0 C 4fzx^2   0.00000   0.00000   0.00000   0.00000   0.00000
  0 C 4fx^3   -0.00000   0.00000   0.00000   0.00000  -0.00000

To work with the spin densities directly, `use mulliken_meta_spin()` only printing them here.

 ** Mulliken spin pop alpha/beta on meta-lowdin orthogonal AOs **
 ** Mulliken Spin Density (per AO)  **
spin_pop of  0 C 1s       -0.00001
spin_pop of  0 C 2s        0.00333
spin_pop of  0 C 3s       -0.00354
spin_pop of  0 C 4s        0.00000
spin_pop of  0 C 2px       0.86215
spin_pop of  0 C 2py       0.88683
spin_pop of  0 C 2pz       0.24675
spin_pop of  0 C 3px       0.00179
spin_pop of  0 C 3py       0.00184
spin_pop of  0 C 3pz       0.00051
spin_pop of  0 C 4px       0.00005
spin_pop of  0 C 4py       0.00005
spin_pop of  0 C 4pz       0.00002
spin_pop of  0 C 3dxy      0.00001
spin_pop of  0 C 3dyz      0.00005
spin_pop of  0 C 3dz^2     0.00008
spin_pop of  0 C 3dxz      0.00006
spin_pop of  0 C 3dx2-y2    0.00000
spin_pop of  0 C 4dxy     -0.00000
spin_pop of  0 C 4dyz     -0.00000
spin_pop of  0 C 4dz^2    -0.00000
spin_pop of  0 C 4dxz     -0.00000
spin_pop of  0 C 4dx2-y2   -0.00000
spin_pop of  0 C 4fy^3     0.00000
spin_pop of  0 C 4fxyz     0.00000
spin_pop of  0 C 4fyz^2    0.00000
spin_pop of  0 C 4fz^3     0.00000
spin_pop of  0 C 4fxz^2    0.00000
spin_pop of  0 C 4fzx^2    0.00000
spin_pop of  0 C 4fx^3     0.00000
 ** Mulliken Spin Density (per atom)  **
spin density of  0 C =      2.00000
 ** Mulliken pop alpha/beta on meta-lowdin orthogonal AOs **
 ** Mulliken pop       alpha | beta **
pop of  0 C 1s        0.99999 | 1.00000   
pop of  0 C 2s        0.99847 | 0.99514   
pop of  0 C 3s        0.00001 | 0.00354   
pop of  0 C 4s        0.00001 | 0.00000   
pop of  0 C 2px       0.86215 | 0.00000   
pop of  0 C 2py       0.88683 | 0.00000   
pop of  0 C 2pz       0.24675 | 0.00000   
pop of  0 C 3px       0.00179 | 0.00000   
pop of  0 C 3py       0.00184 | 0.00000   
pop of  0 C 3pz       0.00051 | 0.00000   
pop of  0 C 4px       0.00005 | 0.00000   
pop of  0 C 4py       0.00005 | 0.00000   
pop of  0 C 4pz       0.00002 | 0.00000   
pop of  0 C 3dxy      0.00007 | 0.00006   
pop of  0 C 3dyz      0.00038 | 0.00033   
pop of  0 C 3dz^2     0.00060 | 0.00052   
pop of  0 C 3dxz      0.00047 | 0.00040   
pop of  0 C 3dx2-y2    0.00000 | 0.00000   
pop of  0 C 4dxy      0.00000 | 0.00000   
pop of  0 C 4dyz      0.00000 | 0.00000   
pop of  0 C 4dz^2     0.00000 | 0.00000   
pop of  0 C 4dxz      0.00000 | 0.00000   
pop of  0 C 4dx2-y2    0.00000 | 0.00000   
pop of  0 C 4fy^3     0.00000 | 0.00000   
pop of  0 C 4fxyz     0.00000 | 0.00000   
pop of  0 C 4fyz^2    0.00000 | 0.00000   
pop of  0 C 4fz^3     0.00000 | 0.00000   
pop of  0 C 4fxz^2    0.00000 | 0.00000   
pop of  0 C 4fzx^2    0.00000 | 0.00000   
pop of  0 C 4fx^3     0.00000 | 0.00000   
In total             4.00000 | 2.00000   
 ** Mulliken atomic charges   ( Nelec_alpha | Nelec_beta ) **
charge of  0C =     -0.00000  (     4.00000      2.00000 )
Dipole moment(X, Y, Z, Debye):  0.00005, -0.00001,  0.00001
Converting <class 'pyscf.soscf.newton_ah.newton.<locals>.SecondOrderUHF'> to UHF

******** <class 'pyscf.cc.uccsd.UCCSD'> ********
CC2 = 0
CCSD nocc = (4, 2), nmo = (30, 30)
max_cycle = 50
direct = 0
conv_tol = 1e-07
conv_tol_normt = 1e-06
diis_space = 6
diis_start_cycle = 0
diis_start_energy_diff = 1e+09
max_memory 4000 MB (current use 69 MB)
E1 = -50.452393489430634  Ecoul = 12.760824316756917
Init t2, MP2 energy = -0.0756708727480205
    CPU time for init mp2      0.00 sec, wall time      0.00 sec
Init E_corr(CCSD) = -0.0756708727809549
cycle = 1  E_corr(CCSD) = -0.0890977902435335  dE = -0.0134269175  norm(t1,t2) = 0.0454113
    CPU time for CCSD iter      0.03 sec, wall time      0.03 sec
cycle = 2  E_corr(CCSD) = -0.0929373014368732  dE = -0.00383951119  norm(t1,t2) = 0.0198501
    CPU time for CCSD iter      0.03 sec, wall time      0.03 sec
cycle = 3  E_corr(CCSD) = -0.0958130708982065  dE = -0.00287576946  norm(t1,t2) = 0.0101012
    CPU time for CCSD iter      0.03 sec, wall time      0.03 sec
cycle = 4  E_corr(CCSD) = -0.09576540309817  dE = 4.76678e-05  norm(t1,t2) = 0.00142444
    CPU time for CCSD iter      0.03 sec, wall time      0.03 sec
cycle = 5  E_corr(CCSD) = -0.0957831284649872  dE = -1.77253668e-05  norm(t1,t2) = 0.000245988
    CPU time for CCSD iter      0.03 sec, wall time      0.03 sec
cycle = 6  E_corr(CCSD) = -0.0957780623191211  dE = 5.06614587e-06  norm(t1,t2) = 4.19168e-05
    CPU time for CCSD iter      0.03 sec, wall time      0.03 sec
cycle = 7  E_corr(CCSD) = -0.0957802247949475  dE = -2.16247583e-06  norm(t1,t2) = 9.04596e-06
    CPU time for CCSD iter      0.03 sec, wall time      0.03 sec
cycle = 8  E_corr(CCSD) = -0.0957797113109794  dE = 5.13483968e-07  norm(t1,t2) = 2.2578e-06
    CPU time for CCSD iter      0.03 sec, wall time      0.03 sec
cycle = 9  E_corr(CCSD) = -0.0957797108855416  dE = 4.25437782e-10  norm(t1,t2) = 5.69682e-07
    CPU time for CCSD iter      0.03 sec, wall time      0.03 sec
    CPU time for CCSD      0.29 sec, wall time      0.28 sec
UCCSD converged
E(UCCSD) = -37.78734888355926  E_corr = -0.0957797108855416
E1 = -50.452393489430634  Ecoul = 12.760824316756917
max_memory 3893 MB (106 MB in use)
max_memory 3893 MB (106 MB in use)
    CPU time for UCCSD(T)      0.12 sec, wall time      0.14 sec
UCCSD(T) correction = -0.00217820713975666


CCSD correlation energy:  -0.0957797108855416
E1 = -50.452393489430634  Ecoul = 12.760824316756917
CCSD total energy:  -37.78734888355926


CCSD(T) correlation energy:  -0.09795791802529825
E1 = -50.452393489430634  Ecoul = 12.760824316756917
CCSD(T) total energy:  -37.78952709069902
